units real
atom_style full
boundary p p p

pair_style lj/charmm/coul/long 12.0 16.0
kspace_style pppm 1e-6
dielectric 1.000000
bond_style harmonic
angle_style harmonic
dihedral_style fourier
improper_style cvff
special_bonds amber
pair_modify mix arithmetic
neighbor 2.0 bin
neigh_modify delay 0 every 1 check yes
read_data mix_cell_ini.data
Reading data file ...
  orthogonal box = (-78.540631 -78.540631 -78.540631) to (78.540631 78.540631 78.540631)
  2 by 3 by 5 MPI processor grid
  reading atoms ...
  10248 atoms
  reading velocities ...
  10248 velocities
  scanning bonds ...
  4 = max bonds/atom
  scanning angles ...
  6 = max angles/atom
  scanning dihedrals ...
  15 = max dihedrals/atom
  scanning impropers ...
  1 = max impropers/atom
  reading bonds ...
  9301 bonds
  reading angles ...
  912 angles
  reading dihedrals ...
  1449 dihedrals
  reading impropers ...
  150 impropers
Finding 1-2 1-3 1-4 neighbors ...
  special bond factors lj:    0        0        0.5     
  special bond factors coul:  0        0        0.8333333333333334
     4 = max # of 1-2 neighbors
     8 = max # of 1-3 neighbors
    18 = max # of 1-4 neighbors
    22 = max # of special neighbors
  special bonds CPU = 0.003 seconds
  read_data CPU = 0.033 seconds

thermo_style custom step time temp press enthalpy etotal ke pe ebond eangle edihed eimp evdwl ecoul elong etail vol lx ly lz density pxx pyy pzz pxy pxz pyz
thermo_modify flush yes
thermo 1000

group fixed_atoms id 1
1 atoms in group fixed_atoms
group rest_atoms subtract all fixed_atoms
10247 atoms in group rest_atoms
fix fix1 fixed_atoms setforce 0.0 0.0 0.0

dump dump0 all custom 1000 poly_sol_npt.dump id type mol x y z ix iy iz vx vy vz
dump xtc0 all xtc 1000 poly_sol.xtc
dump_modify xtc0 unwrap yes
restart 10000 radon_md_1.rst radon_md_2.rst

timestep 0.005000

# npt
fix md1 all npt temp 300.000000 300.000000 100.000000 iso 1.000000 1.000000 500.000000 nreset 1000

run 2000000
PPPM initialization ...
WARNING: System is not charge neutral, net charge = 2.3078745 (src/kspace.cpp:325)
  using 12-bit tables for long-range coulomb (src/kspace.cpp:340)
  G vector (1/distance) = 0.18235202
  grid = 72 72 72
  stencil order = 5
  estimated absolute RMS force accuracy = 0.00035704683
  estimated relative force accuracy = 1.0752359e-06
  using double precision MKL FFT
  3d grid and FFT values/proc = 24969 15552
Neighbor list info ...
  update every 1 steps, delay 0 steps, check yes
  max neighbors/atom: 2000, page size: 100000
  master list distance cutoff = 18
  ghost atom cutoff = 18
  binsize = 9, bins = 18 18 18
  1 neighbor lists, perpetual/occasional/extra = 1 0 0
  (1) pair lj/charmm/coul/long, perpetual
      attributes: half, newton on
      pair build: half/bin/newton
      stencil: half/bin/3d
      bin: standard
Per MPI rank memory allocation (min/avg/max) = 18.28 | 18.51 | 19.38 Mbytes
Step Time Temp Press Enthalpy TotEng KinEng PotEng E_bond E_angle E_dihed E_impro E_vdwl E_coul E_long E_tail Volume Lx Ly Lz Density Pxx Pyy Pzz Pxy Pxz Pyz 
       0            0    301.67997    85.083567   -45064.796   -49874.239    9214.6219   -59088.861    807.98322    283.72735     125.8923  0.071404411    1848.0099   -10145.289   -52009.256            0    3875905.2    157.08126    157.08126    157.08126  0.025637322    77.612348    51.153585    126.48477    6.1642736    5.0420398  0.080880717 
    1000            5    288.98688   0.63688536   -49836.662   -49872.664    8826.9194   -58699.583    2204.7289    368.09408    153.67083   0.76327362    889.28735   -10302.662   -52013.465            0    3876057.6    157.08332    157.08332    157.08332  0.025636313    6.8399348    -26.89901    21.969731    17.966226    3.3126004    2.7346547 
    2000           10    280.66965   -53.859437   -52911.264   -49866.705     8572.875    -58439.58     2598.881    290.85746     176.6645    1.3239206     1270.222   -10754.244   -52023.286            0    3876026.3     157.0829     157.0829     157.0829  0.025636521   -85.771326   -91.605648    15.798663    19.650811   -8.3328179    9.6369513 
    3000           15    275.61009   -18.034117   -50874.826   -49855.573    8418.3339   -58273.906    2195.2143    343.18323    164.09926   0.88714324    2522.3161   -11461.991   -52037.616            0    3875354.7    157.07382    157.07382    157.07382  0.025640964    23.181365   -1.5796556   -75.704062   0.13556863     4.615893  -0.73259184 
    4000           20    281.33098   -41.213852   -52168.448   -49839.711     8593.075   -58432.786    2573.9427    320.07234    169.85959   0.89857083    2857.8181   -12301.746   -52053.631            0    3874373.5    157.06057    157.06057    157.06057  0.025647457   -80.153635   -98.168313    54.680391   -2.0555851   -2.8999803    1.7042595 
    5000           25    268.37729   -102.62863   -55620.037   -49823.272    8197.4128   -58020.685    3629.7715    313.90152    181.84992    1.0869491    3068.7279   -13147.463    -52068.56            0    3872944.2    157.04125    157.04125    157.04125  0.025656922   -40.483124   -62.917582   -204.48519   -37.138809    5.4796054   -21.863072 
    6000           30    288.11276    18.841854   -48741.063   -49804.697    8800.2199   -58604.917     2946.989    375.96648     175.7461   0.92497115    3933.0647   -13956.645   -52080.963            0    3870729.6    157.01131    157.01131    157.01131  0.025671602   -30.134923   -41.735279    128.39576    19.379915   -16.354147   -2.9690836 
    7000           35    300.18847   -20.100649   -50920.489   -49786.416    9169.0649   -58955.481    3333.3284    396.47201    179.05003    1.0598871    3853.4018   -14629.579   -52089.214            0    3868610.7    156.98266    156.98266    156.98266  0.025685662    41.003193     31.37301   -132.67815   -2.4402987   -4.1260337    -7.178219 
    8000           40    317.38932    49.985246   -46954.222   -49772.886    9694.4538    -59467.34    3473.5966    354.36973    177.06678    1.1470767    3791.3244   -15171.878   -52092.966            0      3866567    156.95501    156.95501    156.95501  0.025699238    3.1989797    23.488896    123.26786    20.958348   -23.811053    2.6699254 
    9000           45     345.0286    46.421823   -47147.708   -49764.391    10538.678   -60303.069    2580.4985    491.78049    166.15181   0.90589326    4050.8026   -15502.379   -52090.829            0    3865031.7    156.93423    156.93423    156.93423  0.025709447    84.891935    78.092619   -23.719084   -16.859415   -12.746982   -12.823717 
   10000           50    358.88868    78.950397   -45316.494   -49765.705    10962.025    -60727.73    2456.8157    423.46134    188.22573     1.255626    3972.6744   -15685.638   -52084.525            0    3864139.6    156.92216    156.92216    156.92216  0.025715383    64.458669    66.257125     106.1354    5.5784319    9.8010443   -11.465495 
   11000           55    357.52463   -30.869718    -51516.43   -49776.885    10920.361   -60697.246    2879.1664      412.496    203.90388    1.4902546     3591.596   -15712.364   -52073.534            0    3863911.1    156.91906    156.91906    156.91906  0.025716903    -40.84625   -13.946649   -37.816255   -10.757547   -4.6822345   0.54078478 
   12000           60    368.20597   -13.818545   -50575.331    -49796.73    11246.616   -61043.346    2432.1706    391.16726    188.03879    1.0173236    3721.2388   -15715.031   -52061.947            0    3863466.9    156.91305    156.91305    156.91305   0.02571986   -27.543809   -21.288072    7.3762469    19.007805    18.108961    7.9015192 
   13000           65    376.97801   -50.392393   -52664.665   -49825.842    11514.552   -61340.394    2303.7029      380.814    189.99881    1.1867164    3529.3756   -15696.286   -52049.187            0    3862757.9    156.90345    156.90345    156.90345  0.025724581   -29.905056   -75.077295   -46.194828  -0.24672116   -14.645925    26.795551 
   14000           70    364.81838   -64.201622   -53478.991     -49863.4    11143.144   -61006.544    2886.1894    422.06573    198.71232    1.1495674    3248.9402   -15728.455   -52035.147            0    3861512.5    156.88659    156.88659    156.88659  0.025732878   -62.968525   -76.801514   -52.834827    6.3036742   -4.4202242  -0.44079052 
   15000           75    369.33227   -7.0778691   -50303.063   -49904.657    11281.018   -61185.674    2581.0215    373.47791    188.93195    1.2427141     3498.224    -15809.37   -52019.203            0      3859650    156.86136    156.86136    156.86136  0.025745295    3.6294495   -37.957477     13.09442    0.2657203   -3.8617009    15.323625 
   16000           80    365.27145   -13.317514   -50696.836   -49947.596    11156.983   -61104.579    2840.1355    454.44279    206.66878    1.4830613    3348.4795   -15951.456   -52004.332            0    3857644.3    156.83418    156.83418    156.83418  0.025758681   -39.958216      -42.398    42.403675    19.420077   -1.5488646   -27.265751 
   17000           85    376.36949     9.302561   -49467.397   -49990.479    11495.965   -61486.444    2816.8961    389.53108    218.60877    1.9305221    3248.9782   -16175.489     -51986.9            0    3855592.4    156.80637    156.80637    156.80637  0.025772389   -4.1970708   -10.380487    42.485241   -3.1612837    9.9133513  -0.55036553 
   18000           90    370.20882   -10.527163   -50626.955    -50035.32    11307.792   -61343.112    2790.5877     394.6941    213.83677    2.0564181    3690.3635   -16465.643   -51969.007            0    3853604.2    156.77941    156.77941    156.77941  0.025785686   -19.207319   -2.1873457   -10.186824    8.4913463    1.8101956   -20.471038 
   19000           95    382.82949    9.6471582   -49539.669   -50081.566    11693.282   -61774.848    2434.6632     436.7852    220.03139    2.2566009    3912.2842   -16826.505   -51954.364            0    3851601.6    156.75225    156.75225    156.75225  0.025799093     29.07962    5.8345231   -5.9726686   -12.578193     24.91458    23.557306 
   20000          100    378.37694   -48.940008   -52879.444   -50131.829    11557.282   -61689.111    2781.1099    427.84351    235.04099    2.7738586    4022.3451   -17217.207   -51941.017            0    3849602.1    156.72512    156.72512    156.72512  0.025812493   -31.538796   -32.410388   -82.870839    -5.882676    1.9887986    6.4662159 
   21000          105    385.06958    3.9898499   -49960.593   -50184.456    11761.704    -61946.16    2605.6253    424.98498    206.96083    1.8700222    4408.6701   -17664.305   -51929.966            0    3847242.5    156.69309    156.69309    156.69309  0.025828324      36.7111   -1.3540517   -23.387499    -20.86463    2.6573016    30.043069 
   22000          110    388.01541   -16.984671   -51193.624   -50241.244    11851.683   -62092.927    2666.2347    370.86942     211.9559    2.1322477    4667.2549   -18092.292   -51919.082            0    3844829.2    156.66032    156.66032    156.66032  0.025844536   -1.9168359   -23.953862   -25.083314   -6.4458008   -5.2325417   -12.059403 
   23000          115    388.35754    25.734562   -48858.062   -50300.143    11862.133   -62162.276    2756.0638    418.88389    236.35758    2.5413253    4830.7049    -18497.72   -51909.108            0    3842351.2    156.62666    156.62666    156.62666  0.025861204    15.720439    5.0536052    56.429643    -20.35574   -13.343213   -4.9311905 
   24000          120    390.00048    15.062952    -49518.38    -50361.96    11912.315   -62274.275    2818.8699    365.01541    226.80723    2.4863392    5037.8211   -18826.509   -51898.766            0    3840080.1    156.59579    156.59579    156.59579  0.025876499    0.1271324   -10.927393    55.989116  0.016798691   -2.2643985   -36.983486 
   25000          125    395.71229    67.540609   -46644.417   -50424.975    12086.779   -62511.753    2732.7997    356.01406     220.1115    1.8086312    5178.8111   -19111.312   -51889.986            0    3838088.2    156.56871    156.56871    156.56871  0.025889928    39.537879    61.078357    102.00559   -0.5378343   -4.0587479   -6.4772036 
   26000          130    395.71921    33.175121   -48635.797   -50492.093     12086.99   -62579.083    2686.6917    389.91401    230.41242    2.7730723    5306.8245   -19315.373   -51880.326            0    3836708.6    156.54995    156.54995    156.54995  0.025899238    23.115261    32.265652     44.14445    7.0542202  -0.61708999   -7.7662596 
   27000          135     392.7279    55.563095   -47452.948   -50561.205    11995.623   -62556.827    2707.1467    377.49043    214.33922    1.9111664    5474.8876   -19462.341   -51870.261            0    3835787.3    156.53742    156.53742    156.53742  0.025905458    66.016475    68.608784    32.064025   -6.1036798   -17.692651    11.066733 
   28000          140    394.16751    18.347515   -49605.979   -50632.244    12039.595   -62671.839    2643.6595    371.13957    210.97428    1.8127032    5459.2511   -19496.329   -51862.347            0    3835361.8    156.53163    156.53163    156.53163  0.025908332    23.367812    26.899346    4.7753856   -4.2314829     5.238724    22.655934 
   29000          145     391.2098    46.888485   -48081.353   -50703.962    11949.253   -62653.215    2730.4462    403.44137    217.10813    2.1132372    5312.8808    -19462.94   -51856.265            0    3835230.8    156.52985    156.52985    156.52985  0.025909217    54.221526    57.415909     29.02802    11.247559   -7.8289828    2.3847315 
   30000          150    399.75813    13.317849   -50033.081   -50778.039    12210.357   -62988.396    2559.9237    371.46534    229.03722    2.5373814    5044.4498   -19347.477   -51848.332            0    3835499.5    156.53351    156.53351    156.53351  0.025907402    22.515809    6.2928594    11.144879   -5.6794136    17.871976    7.6848945 
   31000          155    395.38666    29.421259   -49207.827   -50853.766    12076.833   -62930.599    2683.0145    385.27195    235.75418    2.7217956    4855.1748   -19251.902   -51840.634            0    3835981.1    156.54006    156.54006    156.54006   0.02590415    50.381841     17.71405    20.167887    10.118762   -17.892513   -28.061999 
   32000          160    396.19046   -4.2035285   -51165.131   -50929.927    12101.384   -63031.311    2601.2146    371.12759    226.45656    2.2594549    4747.0499   -19145.731   -51833.689            0    3836670.6    156.54944    156.54944    156.54944  0.025899494    1.2525464   0.87838372   -14.741516     9.588042    6.2590543    11.319522 
   33000          165    392.90002    36.613392   -48958.034   -51007.085     12000.88   -63007.965    2520.8835    340.84662    217.33866    2.1347639    4824.4498   -19085.707   -51827.911            0    3837397.9    156.55933    156.55933    156.55933  0.025894585    25.782763    48.336053     35.72136    27.241168  -0.32812717   -14.429308 
   34000          170    387.94934   -4.2973043   -51323.857   -51083.299    11849.664   -62932.964    2710.1595    338.62967    220.09681     2.362221    4635.1253   -19016.941   -51822.397            0    3838378.3    156.57266    156.57266    156.57266  0.025887971   -23.714566    15.166953   -4.3442994    13.332232     11.41922    29.352155 
   35000          175    387.38565  -0.90121936   -51210.127   -51159.665    11832.447   -62992.112     2756.339    346.67683    221.53109    2.2394016    4485.0883   -18986.196    -51817.79            0    3839359.2    156.58599    156.58599    156.58599  0.025881358   -5.3211578    11.549394    -8.931894    4.2045275   -23.477144   -15.055779 
   36000          180    382.09289   -3.6101328   -51437.687   -51235.496    11670.783   -62906.279    2588.2125    371.17441    231.09966     2.988971      4669.69    -18955.05   -51814.395            0      3840285    156.59858    156.59858    156.59858  0.025875118   0.99113288   0.61718036   -12.438712   -7.6289368    7.8083919    26.510736 
   37000          185    380.27386    16.149571   -50406.484   -51311.176    11615.222   -62926.398     2658.478    393.00298    228.51508    2.9606637    4548.9834   -18945.594   -51812.743            0    3841173.6    156.61066    156.61066    156.61066  0.025869132     16.30422    2.6649391    29.479552   -23.563347   -7.3578337   -28.071644 
   38000          190     377.2337    2.9481379   -51220.619   -51385.814    11522.362   -62908.177    2724.0109    378.52232    221.95971    2.2437647    4478.5938   -18902.959   -51810.548            0    3842159.7    156.62406    156.62406    156.62406  0.025862493   -9.8091244   -4.4292863    23.082824   -7.1287518    16.333795   -7.9818122 
   39000          195    376.52039    19.108292   -50389.053   -51460.057    11500.575   -62960.631    2549.8521    406.15909    227.16599     2.571093    4538.0559   -18876.149   -51808.286            0    3843201.5    156.63821    156.63821    156.63821  0.025855482    8.9464489     8.926258    39.452169  -0.26382166   -34.265112   -21.016827 
   40000          200    372.71316   -20.769997    -52698.25   -51533.762    11384.285   -62918.047    2644.4722    421.15922     212.8538    2.4924884    4444.0591   -18838.576   -51804.507            0    3844347.7    156.65378    156.65378    156.65378  0.025847774   -26.517734   -10.497174   -25.295084   -1.0660898   -3.7830062    11.838364 
   41000          205    373.37595   -18.921313    -52667.29   -51606.185     11404.53   -63010.714    2647.5448    352.13113    209.30265    1.9475502     4413.276   -18832.566   -51802.351            0    3845308.5    156.66683    156.66683    156.66683  0.025841315   -20.758951   -26.481289   -9.5236993   -5.1050415   -1.0529295    7.3511933 
   42000          210    365.75857   -16.132951   -52583.315   -51678.411    11171.861   -62850.273    2622.2059    379.72335    197.00791    1.5413313    4577.4025   -18828.377   -51799.777            0    3846030.2    156.67663    156.67663    156.67663  0.025836466   -13.353579   -17.837863   -17.207411   -4.4747377    23.793822    28.857951 
   43000          215    369.52605   0.46562958   -51723.243   -51749.364    11286.937   -63036.301    2512.1557    352.89482    197.81281    1.6128853    4546.4278   -18851.015    -51796.19            0    3846577.6    156.68407    156.68407    156.68407  0.025832789    7.5372239   -14.542755    8.4024197    13.323416    0.1213112     4.633439 
   44000          220    361.66482    3.1256215   -51644.553   -51819.918    11046.821   -62866.739    2698.6378    355.40943    223.52418    1.9747651    4504.4928   -18858.494   -51792.284            0    3847080.7     156.6909     156.6909     156.6909  0.025829411  -0.43914047    11.872645   -2.0566398    10.264473    5.0849732    4.6255406 
   45000          225    359.91865    27.773397   -50329.666   -51888.129    10993.485   -62881.614    2516.3125    381.90553    231.18812    2.0778331    4627.3067   -18850.661   -51789.744            0    3847614.2    156.69814    156.69814    156.69814  0.025825829    50.555302   -6.1778513    38.942739   -0.3450432    7.8256539   -25.099813 
   46000          230     358.4986    32.483608   -50133.501   -51956.639     10950.11   -62906.749     2534.993     387.4409     220.2091    1.9999844    4555.3353   -18818.949   -51787.778            0    3848391.8    156.70869    156.70869    156.70869  0.025820611    32.682342    33.620452    31.148029   -6.3594629    16.729913   -10.114886 
   47000          235     354.9357    4.9284685   -51746.439   -52023.125    10841.284   -62864.409    2640.0166    374.61208    219.28193    1.9393173    4445.8131   -18761.429   -51784.643            0    3849449.6    156.72305    156.72305    156.72305  0.025813516    15.975919   -5.5874448    4.3969318   0.15307517    -6.482322   -13.214928 
   48000          240    352.97366   -10.843847    -52698.56   -52089.608    10781.355   -62870.963     2585.719    393.03084    222.52248     1.864217     4416.984   -18708.609   -51782.475            0    3850558.1    156.73809    156.73809    156.73809  0.025806085   -22.019961    12.212181   -22.723762   0.44338382   -6.7938018    4.0652873 
   49000          245    349.52485    -33.99042   -54063.668   -52154.409    10676.013   -62830.422    2601.1748    361.18245    225.92202    2.0821714     4418.579   -18660.064   -51779.299            0    3851521.1    156.75116    156.75116    156.75116  0.025799632   -18.650879    -39.22809   -44.092291   -23.327897   -9.8291808     9.895582 
   50000          250    348.03917   -19.146375   -53293.864   -52218.225    10630.634   -62848.859    2632.1753    363.39565    236.80282     2.176878    4341.5065    -18646.76   -51778.156            0    3852158.7    156.75981    156.75981    156.75981  0.025795362   -27.998734   -10.836183   -18.604209   -11.715223    6.8369945    14.462881 
   51000          255    344.60398   -17.518361   -53265.671   -52281.392    10525.708   -62807.101     2637.861    403.59552    239.03228    1.9672684    4314.1586   -18627.241   -51776.474            0    3852553.6    156.76516    156.76516    156.76516  0.025792718   -32.320384   -19.269955  -0.96474364    7.3568629    -2.260893    6.7038235 
   52000          260    345.60082    20.607488   -51185.226   -52343.144    10556.156     -62899.3    2588.8784    374.41817    221.75025    1.9988685    4332.3055   -18643.222   -51775.429            0    3852803.6    156.76856    156.76856    156.76856  0.025791044    2.9781593     22.73556    36.108745    8.2422311    1.2147184    0.5329412 
   53000          265    339.65497    -2.144291   -52525.015   -52404.517    10374.544   -62779.061    2695.1108    367.37816    225.20503    2.6967523    4346.8538   -18641.797   -51774.508            0    3853177.9    156.77363    156.77363    156.77363  0.025788539   -18.877493   -2.2771523    14.721773  -0.53847436    1.3725525     -15.3562 
   54000          270    341.35189    18.003581   -51451.927   -52463.738    10426.375   -62890.113     2605.571    349.94639    220.95328    2.3096202     4355.487   -18649.518   -51774.862            0    3853580.7     156.7791     156.7791     156.7791  0.025785843    8.8308578    21.923365    23.256519   -3.0666836   -3.1752227   -5.8438603 
   55000          275    336.49611   -11.403689   -53164.061   -52523.084    10278.059   -62801.143    2580.1566    403.11627    204.72101    1.5540251    4408.9173   -18624.171   -51775.436            0      3854087    156.78596    156.78596    156.78596  0.025782456   -28.544055   -7.4846935    1.8176812    15.449947   -7.1932224    4.7714255 
   56000          280    339.92623   0.13187761   -52573.862   -52581.275    10382.829   -62964.104    2516.4946    374.19863    201.56879    1.5952521    4344.8755   -18625.243   -51777.594            0    3854532.1      156.792      156.792      156.792  0.025779478   -1.3551033    9.0846746   -7.3339385    6.9843785   -17.647587    5.8104606 
   57000          285    335.37225   -41.750841   -54986.951   -52639.735    10243.731   -62883.466    2649.9934    376.42705    223.68163    2.6863446    4268.5102   -18624.757   -51780.007            0    3854889.3    156.79684    156.79684    156.79684   0.02577709   -31.209432   -53.056152    -40.98694    1.5550647   -8.6570088    7.3681487 
   58000          290    334.23534   -1.3428374   -52772.221   -52696.727    10209.005   -62905.732    2507.8908    403.55505    230.41303    2.8562531    4404.2902   -18672.125   -51782.612            0    3854911.5    156.79714    156.79714    156.79714  0.025776942     4.944131   0.28704659   -9.2596897   -8.6149469     14.19335   0.14969889 
   59000          295    333.21686   -11.759846   -53414.203   -52753.079    10177.896   -62930.975    2542.1519    384.25477    219.99759    2.7308058    4411.2087   -18706.411   -51784.908            0    3854835.2    156.79611    156.79611    156.79611  0.025777452    -17.45378   -19.981348    2.1555914    -1.203765    19.171089   -1.9715808 
   60000          300    333.43616    21.599101    -51594.26   -52808.493    10184.594   -62993.088    2570.0961    375.43401    217.93128    1.9059333    4385.2201   -18756.596   -51787.079            0    3854700.8    156.79428    156.79428    156.79428  0.025778351    12.743487    32.460813    19.593005    2.2624512    11.005492   -6.2631259 
   61000          305    336.25117   -1.4337308   -52944.359    -52863.76    10270.577   -63134.337     2497.379     342.3724    217.56607      1.99161    4383.8395    -18788.22   -51789.266            0    3854699.4    156.79426    156.79426    156.79426   0.02577836    3.2439407   -11.217807    3.6726737   0.21406573   -12.427412   -2.3632427 
   62000          310    334.30393     13.79866   -52143.674   -52919.397      10211.1   -63130.497    2454.5586    390.22568    209.67657    1.5688664    4440.9025   -18836.908   -51790.522            0    3854728.8    156.79466    156.79466    156.79466  0.025778163    33.970305     25.07914   -17.653465  -0.79031322   -15.751554   -1.0388076 
   63000          315    334.29733   -20.091069    -54103.68   -52974.192    10210.898    -63185.09    2531.4317    346.99007    231.69477    1.6077602    4373.0516   -18879.051   -51790.815            0    3854808.6    156.79575    156.79575    156.79575  0.025777629    -11.23132    -20.25848   -28.783406   -3.2689776   -11.866934    -2.177486 
   64000          320    332.26431    7.3566589   -52615.403   -53028.976    10148.801   -63177.776    2565.2969    334.69467    236.07199    1.7402951    4422.9218   -18946.032    -51792.47            0    3854742.4    156.79485    156.79485    156.79485  0.025778072    4.8348536     16.91621   0.31891357    5.4372417   0.45223117    13.383523 
   65000          325    331.11534   -5.8474817   -53411.352   -53082.627    10113.706   -63196.333    2458.6882    395.43187    233.96129    2.3140215    4503.0163   -18994.851   -51794.894            0    3854673.9    156.79392    156.79392    156.79392  0.025778531   -23.447362   -6.3833234    12.288241    15.978961  -0.25186068    1.2767387 
   66000          330    330.62355    10.004775   -52573.926   -53136.345    10098.685    -63235.03    2596.3502     367.6889    239.42103    3.0755926    4410.3801   -19055.626   -51796.319            0    3854576.9     156.7926     156.7926     156.7926  0.025779179   -7.4355792    14.657173     22.79273   -2.2013648    16.391967    7.0261006 
   67000          335    332.11574   -1.1122355   -53252.036   -53189.513    10144.263   -63333.775    2490.9492    367.71951    226.86691    1.9931758    4463.6134   -19087.694   -51797.223            0    3854532.5      156.792      156.792      156.792  0.025779476   -13.282696   -2.2264225    12.172412    11.931916    11.000195   -13.665664 
   68000          340    328.60337    20.555274    -52087.13    -53242.63     10036.98    -63279.61    2523.7802    411.92053    215.82815    1.5828749    4486.1171   -19119.823   -51799.016            0    3854526.8    156.79192    156.79192    156.79192  0.025779514    17.963025    19.295227    24.407571    6.3156472     10.78667    6.0152558 
   69000          345    331.80838   -11.869845   -53963.099   -53295.821    10134.875   -63430.695    2503.2945    343.70198    230.28253    2.0621287     4412.746   -19121.052    -51801.73            0      3854662    156.79376    156.79376    156.79376   0.02577861   0.41549681   -20.649141   -15.375891    12.718249   -17.076084    5.4433519 
   70000          350    331.82627    2.3941314   -53214.617   -53349.208    10135.421    -63484.63    2499.7736    391.95719    223.96911    2.1826981    4342.2397   -19141.131   -51803.621            0      3854739     156.7948     156.7948     156.7948  0.025778095    13.960714    5.4582428   -12.236562   -17.486176   -29.529285    1.0432676 
   71000          355    333.65732   -22.346103   -54659.707   -53403.456     10191.35   -63594.805    2473.5695    378.10531    218.61506    1.9852043    4294.5797   -19157.198   -51804.462            0    3854774.3    156.79528    156.79528    156.79528  0.025777859   -19.407513   -29.020005    -18.61079   -17.675639   -11.508684   -18.708376 
   72000          360     333.6304    7.8277902   -53017.597   -53457.644    10190.527   -63648.172    2520.8671    343.20982     215.8032    2.2173861    4298.1215   -19223.933   -51804.458            0    3854643.1     156.7935     156.7935     156.7935  0.025778736   -9.0734495    15.231508    17.325312    -1.500688    15.770718      -2.4869 
   73000          365    332.80275   -12.199675   -54198.016   -53512.224    10165.247   -63677.471    2498.7161    372.29441    213.98826    1.9780321    4336.7215   -19296.519    -51804.65            0    3854505.6    156.79164    156.79164    156.79164  0.025779656    -32.25195   -14.344279    9.9972033   -4.9823818    13.561065    3.5135062 
   74000          370    331.21012    20.524498   -52412.402   -53566.105    10116.601   -63682.706    2391.6982    383.96978    206.90848    1.7023748    4541.3671   -19401.927   -51806.425            0    3854301.5    156.78887    156.78887    156.78887  0.025781021    22.702591    19.291466    19.579437  -0.71791225   -6.2114314     12.48299 
   75000          375    330.22542    3.0982979   -53445.576   -53619.731    10086.524   -63706.255    2453.6165    346.57201    213.77474    1.9851347    4561.3306   -19476.166   -51807.368            0    3854226.9    156.78786    156.78786    156.78786   0.02578152   0.93711924   -3.1636669    11.521441   -17.842443   -2.8378919    1.5756634 
   76000          380    328.25423     12.93082   -52945.713   -53672.551    10026.315   -63698.866    2573.6386    333.48678    215.54208    2.3821873    4533.6811   -19547.813   -51809.784            0    3854212.9    156.78767    156.78767    156.78767  0.025781614    13.086673    4.8718671    20.833921    8.1738792  -0.33528523    9.4449649 
   77000          385    329.64712   -2.0745066   -53841.885   -53725.276     10068.86   -63794.136    2547.4673      374.479    210.09047    1.9696637    4483.1136   -19598.443   -51812.813            0    3854286.3    156.78866    156.78866    156.78866  0.025781123   -9.4366064    2.0771014    1.1359851    9.7366785   -4.0901011   -3.0418998 
   78000          390    330.58303    1.1106592   -53715.861   -53778.294    10097.447   -63875.741    2460.8579     365.3421    223.73706      1.78461    4542.1878   -19654.907   -51814.743            0      3854360    156.78966    156.78966    156.78966   0.02578063    2.2965176    2.5589348   -1.5234747   -1.7067255   -8.1635617    2.7799388 
   79000          395    327.24053    -18.60726   -54877.287   -53831.325    9995.3527   -63826.678    2636.7983     345.0792    232.69675    1.9502279    4485.6567   -19714.482   -51814.377            0    3854407.7    156.79031    156.79031    156.79031  0.025780311   -14.589973   -8.9415204   -32.290285   -9.9132132  -0.33735082   -10.845452 
   80000          400    329.01821   -13.001921   -54615.237   -53884.389    10049.651   -63934.039    2558.3765     317.6667    236.37739     1.963643    4536.4702   -19770.384    -51814.51            0      3854287    156.78867    156.78867    156.78867  0.025781118   -36.319465  -0.48163916   -2.2046576   -6.0891314    8.4863219  -0.39973727 
   81000          405    327.10881    4.3438788   -53692.771   -53936.928    9991.3293   -63928.257    2488.3067    386.08069    209.49585     1.353934    4634.7244   -19833.153   -51815.065            0    3854039.7    156.78532    156.78532    156.78532  0.025782772  -0.91434116    18.329336   -4.3833582    6.2074425   -2.9606665   -5.5013943 
   82000          410    330.27024   0.33293063   -53970.995   -53989.707    10087.893     -64077.6    2509.3597    342.24325    210.97895    1.3753767    4557.5905   -19883.947   -51815.201            0    3853815.9    156.78228    156.78228    156.78228  0.025784269   -12.105129     4.305755    8.7981658   -4.1759146   -17.490118    15.328204 
   83000          415    329.08094    9.1537257   -53527.502    -54041.95    10051.567   -64093.517     2515.349    328.15002    218.97624    1.7730914    4587.9704   -19930.748   -51814.988            0    3853614.4    156.77955    156.77955    156.77955  0.025785617    35.653009    3.7746457   -11.966477  -0.58124295    4.8841739    20.354991 
   84000          420    329.31695    4.5524045   -53838.568   -54094.409    10058.776   -64153.185    2392.1631    374.98792     194.1649    1.2555482    4653.7469   -19953.603     -51815.9            0    3853487.9    156.77784    156.77784    156.77784  0.025786464    11.923902     -19.1965    20.929812   -5.2830673     3.931188    12.501382 
   85000          425    328.53565    9.3912624   -53618.972   -54146.743    10034.911   -64181.655     2524.353    348.38314    202.40496    1.7575564     4530.595   -19973.432   -51815.717            0    3853418.4    156.77689    156.77689    156.77689  0.025786929    33.503094   -3.9873242   -1.3419831    4.3200997    6.2184744   0.96869208 
   86000          430    327.89399   -3.9040322   -54418.026   -54198.628    10015.312    -64213.94    2566.5733    358.69695    217.56047    2.4534375      4440.97   -19983.687   -51816.507            0    3853405.1    156.77671    156.77671    156.77671  0.025787018    -13.20008   -3.1358219    4.6238054   -13.343009      3.47199   -19.591365 
   87000          435    328.08453    17.955403   -53241.622   -54250.674    10021.132   -64271.806    2393.8823    338.06178    208.08489    2.2740312    4606.6054   -20004.314   -51816.401            0      3853386    156.77645    156.77645    156.77645  0.025787146     21.39169    29.367277    3.1072422    1.9091241    10.439026   0.94573302 
   88000          440    328.44636   -4.4415597    -54551.72   -54302.108    10032.184   -64334.292    2405.0471    337.87094       201.31    1.8135349    4539.7921   -20003.964   -51816.162            0    3853480.6    156.77774    156.77774    156.77774  0.025786513   -14.196731    6.4085226   -5.5364712   -15.283051    7.8231036    -5.426307 
   89000          445    328.00053   -4.0965357   -54584.132   -54353.907    10018.566   -64372.473    2499.6879    327.39955    211.93112    1.8568948    4431.7787    -20029.82   -51815.307            0    3853548.9    156.77866    156.77866    156.77866  0.025786056   -11.905203   -2.3370989    1.9526945    6.1655504    -5.695441    2.5392374 
   90000          450    326.36861   -4.1194951   -54636.324   -54404.808    9968.7205   -64373.529    2482.2102    323.86281    213.59735    2.0180451    4496.1205   -20075.068    -51816.27            0      3853545    156.77861    156.77861    156.77861  0.025786082   -13.786368   -18.764025    20.191908    5.2669697   -5.6433158   -1.9749091 
   91000          455    325.96783    16.263816   -53541.814   -54455.834    9956.4788   -64412.313    2398.8191    318.04151    211.28098    1.5220933    4630.9389   -20157.101   -51815.815            0    3853518.9    156.77826    156.77826    156.77826  0.025786257    13.026387     1.598537    34.166525     21.88215   -6.6234298    5.3134577 
   92000          460    322.88365   -6.7821471   -54887.216   -54506.055    9862.2745    -64368.33     2544.015    323.45221    215.10463    1.4949565    4585.8965   -20224.215   -51814.078            0    3853592.5    156.77925    156.77925    156.77925  0.025785764   -6.4443937   -9.3395811   -4.5624666   -9.0482134   -8.6849474  -0.45791938 
   93000          465    325.06151    14.511016    -53740.63    -54556.17     9928.796   -64484.966     2453.531     316.9249     214.7904    1.5416986    4632.0052   -20292.841   -51810.918            0    3853641.1    156.77991    156.77991    156.77991  0.025785439    25.798404    9.3763178    8.3583272    4.4370433   -7.5886054   -1.2841172 
   94000          470     324.8736    10.678349    -54005.73   -54605.891    9923.0563   -64528.948    2426.1315    298.65937    217.65432    1.7530572     4675.246   -20337.907   -51810.484            0    3853791.9    156.78196    156.78196    156.78196   0.02578443    11.648057    12.343382    8.0436063   -25.425551    2.9312656   -11.113518 
   95000          475    324.71309    17.493518   -53672.406   -54655.676    9918.1539    -64573.83    2472.4532     368.2626    205.79283    1.7508311    4594.2992   -20406.339   -51810.049            0      3854071    156.78574    156.78574    156.78574  0.025782563    23.854789    7.2873133    21.338451    3.2049466    5.2774572    9.5267744 
   96000          480    322.86949   -3.2941739   -54890.217    -54705.04    9861.8422   -64566.882    2474.4645    309.89607    201.01834    1.8563349    4719.8836   -20465.334   -51808.667            0    3854478.5    156.79127    156.79127    156.79127  0.025779837    1.0657246   -2.4576218   -8.4906244   -32.813545   -3.1218713    5.7113006 
   97000          485    320.70069    13.950481   -53969.466   -54753.758    9795.5974   -64549.355    2443.0291    310.93703    204.65902    1.7304869    4835.7055   -20538.494   -51806.922            0    3854892.7    156.79689    156.79689    156.79689  0.025777067    23.501854   -3.7302919    22.079881    10.205109   -10.185736    16.852081 
   98000          490    321.51894   -3.5128129   -54999.597   -54802.082    9820.5905   -64622.673    2484.1853    316.19471    199.18838    1.8026226    4752.5435   -20569.064   -51807.523            0    3855383.3    156.80354    156.80354    156.80354  0.025773787   -2.5777536   -19.525071    11.564386   -6.4201122   -8.3342587   -10.378081 
   99000          495    319.68816    27.647319   -53295.228   -54849.956    9764.6706   -64614.627    2477.5167    342.88834    209.28713    2.2289032    4756.0276   -20594.592   -51807.983            0    3855897.2     156.8105     156.8105     156.8105  0.025770352    21.749153    13.602476     47.59033    26.477281   -11.583801     -6.88482 
  100000          500    319.60961    10.624081   -54300.407   -54897.958    9762.2713   -64660.229    2478.1862    331.42869    219.43163    2.3850319    4696.3789   -20580.115   -51807.925            0    3856623.1    156.82034    156.82034    156.82034  0.025765502    28.765191    5.8446038   -2.7375529   -4.2325004   -9.6749248   -12.825258 
  101000          505    318.51987      19.2796   -53860.666   -54945.291    9728.9858   -64674.277    2449.7001    329.51778    209.43576      1.72075    4705.3354   -20563.073   -51806.914            0    3857498.7    156.83221    156.83221    156.83221  0.025759653    17.575721    30.846507    9.4165705    3.8575705   -13.944335   -4.7542264 
  102000          510    319.82141   -10.398246   -55577.474    -54992.34    9768.7405   -64761.081    2465.1094    300.82953    190.33483    1.5734469    4608.5906   -20520.539    -51806.98            0    3858504.8    156.84584    156.84584    156.84584  0.025752936   -2.5932147   -13.796861   -14.804663   -30.512041   -7.3530186   -6.1961813 
  103000          515    317.86315     8.462971   -54562.158   -55038.506    9708.9268   -64747.433    2406.2806    344.39405    185.91873    1.3181816    4624.6276   -20501.459   -51808.513            0    3859452.1    156.85868    156.85868    156.85868  0.025746615   -15.725745    8.8346644    32.279993    5.1119159  -0.69351848    8.9432461 
  104000          520    318.17664   -12.013457   -55760.212   -55083.853    9718.5021   -64802.355    2424.3401     301.9736     204.1947    1.7378841    4542.7851   -20468.744   -51808.643            0    3860408.3    156.87163    156.87163    156.87163  0.025740238   -15.952095   -12.364979   -7.7232973   -5.2185572   -8.8393442    3.6618311 
  105000          525    315.36908   -3.7582279   -55340.207   -55128.571    9632.7469   -64761.318    2487.2406    316.95765    205.76352    1.6236345    4502.2634   -20466.397    -51808.77            0    3861267.1    156.88326    156.88326    156.88326  0.025734513    5.0641314    -19.41277    3.0739549    11.308255   -11.412829   -3.8003355 
  106000          530    315.15664   -17.530301    -56159.74    -55172.37    9626.2582   -64798.628    2508.7992    313.92435    199.63484    1.3237475    4446.1059   -20460.123   -51808.293            0    3862023.6    156.89351    156.89351    156.89351  0.025729472   -17.485349    -40.62134    5.5157859   -15.845217    2.4499139   -9.1062283 
  107000          535    315.33077    20.167182   -54080.062   -55216.135    9631.5766   -64847.711    2375.6487    338.61557    203.69469     1.445312    4519.3059   -20478.807   -51807.615            0    3862647.1    156.90195    156.90195    156.90195  0.025725319    12.265383    8.7041547    39.532009    6.8599094    12.337511   -1.4834849 
  108000          540    315.53257    4.1426459     -55025.7   -55259.111    9637.7406   -64896.852    2393.2916    303.94363    208.24907    1.7090524    4487.1558   -20486.244   -51804.957            0    3863391.7    156.91203    156.91203    156.91203  0.025720361   -7.4733481    13.881218    6.0200679   -13.727153    13.554527    18.291453 
  109000          545    312.78218    3.8892923   -55082.676   -55301.859    9553.7318   -64855.591    2452.6694    310.33606    207.74415    1.6630714    4501.6272   -20525.541   -51804.089            0    3864196.1    156.92292    156.92292    156.92292  0.025715007    18.567703    9.0215165   -15.921343    5.3242178   -2.6292774     12.46083 
  110000          550    310.49824   -27.599009   -56898.579   -55342.916    9483.9701   -64826.886    2480.2908    322.13747    192.33197    1.2384933    4532.4479   -20552.425   -51802.908            0    3864971.7    156.93342    156.93342    156.93342  0.025709846    -19.00298   -32.333647   -31.460401   -8.0233869    3.1282488    21.191348 
  111000          555    310.98096    1.8594761    -55278.77   -55383.598    9498.7146   -64882.312    2391.5962    316.02193    183.38064    1.4748815    4624.8625   -20595.322   -51804.326            0    3865520.9    156.94085    156.94085    156.94085  0.025706193   -7.0663097    1.0845035    11.560234    19.128567   -13.302525   0.18904325 
  112000          560    309.89908   -12.201308    -56111.28   -55423.349    9465.6694   -64889.018    2466.8445    318.04503    193.43631    1.8937307    4552.4105   -20618.319   -51803.329            0    3866004.1    156.94739    156.94739    156.94739  0.025702981   -23.792826    -15.43454    2.6234422    9.8755988   -8.9347569    4.7927431 
  113000          565    308.26986    14.275411   -54657.455    -55462.41    9415.9058   -64878.316    2435.5671    331.88912    206.07546    1.9020287    4621.4283   -20671.678     -51803.5            0    3866406.7    156.95284    156.95284    156.95284  0.025700304     17.93821    8.5962278    16.291795    15.584758   -24.103263   -11.096582 
  114000          570    308.10635   -10.879135   -56114.022   -55500.501    9410.9115   -64911.412    2444.9555    332.79408     206.6424    1.7517725     4595.808   -20693.059   -51800.305            0    3866870.8    156.95912    156.95912    156.95912  0.025697219    7.1989513   -27.826742   -12.009615   -8.5448529    -2.771378   0.58755387 
  115000          575    308.59497     7.430979   -55118.849   -55537.958    9425.8362   -64963.794    2432.5328    346.84453    205.03612    1.6807917    4558.8374    -20709.15   -51799.576            0    3867272.9    156.96456    156.96456    156.96456  0.025694548    1.4947775    2.6728435    18.125316   -9.8728729  -0.55987016  -0.44385857 
  116000          580    310.07473   -9.2310666   -56095.997   -55575.308    9471.0344   -65046.342    2432.3215    314.57013    194.85255     1.271861    4505.0065   -20698.228   -51796.137            0    3867685.2    156.97014    156.97014    156.97014  0.025691808   -9.9678955   -12.393009   -5.3322953   -5.3987062   -3.3422945   -2.1167913 
  117000          585    307.29746     13.22232    -54865.97   -55611.861    9386.2044   -64998.065    2370.6925    336.13079    192.12099    1.1506137    4611.3553   -20715.402   -51794.113            0    3868045.6    156.97501    156.97501    156.97501  0.025689415    -5.716477    24.121763    21.261674  -0.58297665   -6.8494448    7.4733699 
  118000          590    306.19364   -19.785693   -56764.239    -55647.98    9352.4891   -65000.469    2465.3358    326.70217    200.43868    1.4946249    4528.3649   -20731.352   -51791.453            0    3868455.3    156.98056    156.98056    156.98056  0.025686694   -9.6626942   -26.634728   -23.059658     4.490513   -8.8365696   -4.1754136 
  119000          595    303.57789   -5.6638898   -56002.315   -55682.752    9272.5926   -64955.344    2495.0019    321.81079    207.14283    1.6220381    4569.4165   -20759.168   -51791.171            0    3868707.1    156.98396    156.98396    156.98396  0.025685022   -13.211966 0.0027273338   -3.7824306    1.9972702    7.0965753   -6.2776838 
  120000          600    302.51709   -4.3901783   -55964.831   -55717.122    9240.1912   -64957.314    2457.4474    336.61596    195.55379    1.2577337    4615.1304   -20773.671   -51789.647            0    3868863.3    156.98607    156.98607    156.98607  0.025683985    10.483572   -14.373044   -9.2810632  -0.35943134   -7.6876391    -38.80187 
  121000          605    305.19134      4.74117   -55482.907   -55750.429    9321.8745   -65072.303    2431.6011    309.71691    196.18981    1.4761992    4565.9173   -20788.374   -51788.831            0      3868986    156.98773    156.98773    156.98773   0.02568317     2.604773     24.86659   -13.247853   -2.7079918   0.37345587   -10.576753 
  122000          610    304.45056   -12.171658   -56470.302   -55783.491    9299.2477   -65082.739    2488.3812    304.20559    206.83964    1.5699253    4518.8164   -20814.985   -51787.567            0    3869116.1    156.98949    156.98949    156.98949  0.025682307   -1.2553188   -13.533821   -21.725835   -6.6563941   -2.5570334   -13.684617 
  123000          615    306.21597   -3.5953078   -56018.707   -55815.833    9353.1711   -65169.004    2370.1084    287.24097    217.90427    1.6813862    4597.6733   -20856.345   -51787.267            0    3869142.5    156.98985    156.98985    156.98985  0.025682132   -10.828561    14.234864   -14.192227  0.025497795    22.344135    22.170021 
  124000          620    304.49914   -3.9587042   -56071.079   -55847.702    9300.7315   -65148.433    2453.4889    326.46168    212.09475    1.9051444    4559.1019   -20914.977   -51786.509            0    3869104.7    156.98934    156.98934    156.98934  0.025682383    -6.064868   -16.909624     11.09838     6.583619    3.0363283   -8.2698062 
  125000          625     306.3818    9.0936293   -55366.349   -55879.465     9358.236   -65237.701    2430.6778    295.56121    202.05631    1.9620288    4607.4362   -20988.119   -51787.276            0    3869034.5    156.98839    156.98839    156.98839  0.025682849    13.188374    5.6604393     8.432075    1.3150422    8.5104579    16.301758 
  126000          630    303.83339    17.078439   -54947.156   -55910.825    9280.3966   -65191.221    2376.1588    318.79756    212.00601     1.790874    4756.1933   -21068.119   -51788.048            0    3869043.9    156.98852    156.98852    156.98852  0.025682787    18.664814    2.9435148    29.626988    12.863987   -1.9077721    4.1692865 
  127000          635    305.12144     7.736974   -55505.519   -55942.105    9319.7393   -65261.844    2379.6358    307.10686    221.60685    1.8796701    4744.4919   -21127.712   -51788.853            0    3869211.1    156.99078    156.99078    156.99078  0.025681676    10.009263    7.2231741     5.978485    2.1304348    17.350958    14.868031 
  128000          640    304.92105   -4.7574533   -56241.094   -55972.622    9313.6184   -65286.241    2429.4375    301.72459    221.30016    1.7612894    4696.5025   -21149.173   -51787.794            0    3869445.4    156.99395    156.99395    156.99395  0.025680122   -8.1240544   -16.370994    10.222688    4.6656312   0.80714353   -15.144205 
  129000          645    304.81993     2.081298   -55885.738   -56003.195    9310.5299   -65313.725     2367.447      290.182    221.17953    1.8170516    4749.1626   -21156.258   -51787.255            0    3869638.7    156.99656    156.99656    156.99656  0.025678839    2.4113809   -5.0591062    8.8916191   -0.1371716   -3.0610352   -8.7979349 
  130000          650    305.67591   -1.7161823   -56130.044   -56033.187    9336.6753   -65369.862    2389.7234    275.52655     216.9767    1.6643683    4684.9377     -21151.8   -51786.891            0      3869830    156.99915    156.99915    156.99915  0.025677569   -3.0632579   -19.489169     17.40388  -0.64519022    -8.040624    -15.02852 
  131000          655    304.11529   -6.6143162   -56436.632   -56063.321    9289.0072   -65352.329    2441.9327    285.04393    226.49175     1.931485    4636.1744   -21156.468   -51787.435            0    3869989.5     157.0013     157.0013     157.0013  0.025676511   -13.832419    -8.992438    2.9819088   -7.2960207    8.1715983    13.549575 
  132000          660     304.6923    4.3692026   -55846.377    -56092.98    9306.6315   -65399.612    2380.6093    295.68945    230.08937    2.0015742    4641.2666   -21162.431   -51786.837            0    3870083.4    157.00257    157.00257    157.00257  0.025675888    4.8784866   -15.181382    23.410503   -3.8873537    6.1135809   -8.9467564 
  133000          665    304.15989    10.371761    -55537.06   -56122.474    9290.3693   -65412.843    2390.5336    280.34743    230.23307    1.7617512    4639.2103   -21167.797   -51787.132            0    3870209.6    157.00428    157.00428    157.00428  0.025675051    6.6950967    2.3032596    22.116927    4.0010733   -6.4138193    11.231994 
  134000          670    304.64738    4.9960243   -55870.036   -56152.043    9305.2595   -65457.302    2455.4622    301.45656     232.5938    1.8025554    4520.6608   -21181.806   -51787.472            0    3870428.5    157.00724    157.00724    157.00724  0.025673598    18.071042   -26.366372    23.283404    20.074684   -8.2575268   -18.551821 
  135000          675    304.81854   -6.9689709   -56574.651   -56181.253    9310.4873    -65491.74    2377.9293    329.19111    223.69885    2.1076392    4573.4978   -21211.429   -51786.736            0    3870683.1    157.01068    157.01068    157.01068   0.02567191   -3.5080343   -9.1951837   -8.2036947     10.63015   -14.149088    6.4714596 
  136000          680    306.36219   -9.5839402   -56751.761   -56210.723    9357.6373    -65568.36    2362.7039    288.38076    213.93878    1.9996671    4614.6306   -21263.743   -51786.271            0    3870863.1    157.01312    157.01312    157.01312  0.025670716    6.7814994   -17.683308   -17.850011  -0.16339492    2.3291125   -20.052187 
  137000          685     305.3062   -8.7316585   -56732.647   -56239.714    9325.3827   -65565.097     2394.094    287.47527    215.83839    1.7889507    4653.6729   -21331.881   -51786.085            0    3870926.9    157.01398    157.01398    157.01398  0.025670293   -23.841317   -1.4655917  -0.88806663   -10.057356   -2.3202747    5.9931544 
  138000          690    304.71047    10.569613   -55672.036   -56268.724    9307.1865   -65575.911    2370.4007    300.51284    225.98574    2.1641199    4726.8698   -21414.386   -51787.458            0    3870906.5     157.0137     157.0137     157.0137  0.025670428     16.19264    8.2238399    7.2923595   -7.3173455    10.843394    2.4505283 
  139000          695    305.16913    12.368121   -55598.905   -56297.135     9321.196   -65618.331    2390.8787    302.26405    229.35406    2.4698335    4755.2573   -21511.952   -51786.604            0    3870964.4    157.01449    157.01449    157.01449  0.025670045    4.9688618    20.441964    11.693536    11.086792   -1.2695898    22.960391 
  140000          700    306.92684    9.8646076   -55769.044   -56325.966    9374.8839    -65700.85    2391.6016    301.79114    209.21511    1.8309955    4772.6833   -21592.857   -51785.115            0    3871138.6    157.01684    157.01684    157.01684  0.025668889    25.649946    4.3400686  -0.39619126    1.1872665    5.1533053    10.072678 
  141000          705    306.73993    6.1108056    -56010.07   -56355.089    9369.1751   -65724.264    2385.4369    310.81253    218.51598    1.8619505    4812.1347   -21669.841   -51783.186            0    3871405.6    157.02045    157.02045    157.02045  0.025667119    6.1324443   -3.1053136    15.305286    9.0936047   -4.4061169    1.0232948 
  142000          710    305.62052    4.1266374   -56151.405   -56384.416    9334.9833   -65719.399    2391.0867    319.39083    245.35082      2.42784    4822.0656   -21717.725   -51781.996            0    3871728.6    157.02482    157.02482    157.02482  0.025664978    4.6212898   -14.781214    22.539837   -4.1104643      6.36681   -5.8028642 
  143000          715    305.90938    5.8715234   -56082.311   -56413.879    9343.8065   -65757.685    2397.7603    310.65354     219.0887    1.9277074    4862.8737   -21769.429    -51780.56            0      3872095    157.02977    157.02977    157.02977  0.025662549    -10.67043    12.072821    16.212179   -3.5311424    5.5548036   -9.3867919 
  144000          720    307.56598   -5.0227235   -56726.841   -56443.176    9394.4063   -65837.582     2415.172     304.5531    189.47371    1.3882823    4813.2062   -21782.056   -51779.319            0    3872496.6     157.0352     157.0352     157.0352  0.025659888   -11.550829   -3.8882747   0.37093347   -2.1553461    13.879848    0.2763016 
  145000          725    306.78167   -1.2595453   -56544.209   -56473.068    9370.4501   -65843.518    2441.0152    289.45788    211.31548    2.1134998    4786.3134   -21795.067   -51778.667            0    3872856.5    157.04007    157.04007    157.04007  0.025657504   -24.282046    18.746417    1.7569928   -5.9504855    12.216461   -5.3959204 
  146000          730    306.85809   -4.2918178   -56744.988   -56502.559    9372.7843   -65875.343    2414.9272    322.34004    218.44204     2.307766    4717.0914    -21772.43   -51778.022            0    3873179.7    157.04443    157.04443    157.04443  0.025655362    -15.17959  -0.36887713    2.6730135    11.123358   -4.9207721    12.415557 
  147000          735    308.02386   0.26656729   -56517.686   -56532.744    9408.3918   -65941.136     2410.075    304.67195    202.11182    1.7808983    4683.2821   -21766.907    -51776.15            0    3873463.2    157.04827    157.04827    157.04827  0.025653484   -6.7321442    1.4834453    6.0484007   -0.5254212   -5.4539185    2.6239663 
  148000          740    308.34755    -10.53851   -57158.247   -56562.883    9418.2788   -65981.162     2388.878    310.88122    210.91043     1.641607     4634.956   -21754.594   -51773.835            0    3873714.6    157.05166    157.05166    157.05166   0.02565182    3.0601013   -25.103065   -9.5725671    5.3803827   -22.459061    9.6480172 
  149000          745    305.75251   -7.4992922   -57017.118   -56593.436    9339.0149   -65932.451    2379.5448    343.27034    228.43722    1.9992312    4666.4401   -21779.294   -51772.848            0    3873862.4    157.05366    157.05366    157.05366  0.025650841   -6.9314903   -16.813562    1.2471753   -8.7625519     7.296497   -8.8229945 
  150000          750    305.69482   -1.6180034       -56715   -56623.588    9337.2529   -65960.841    2388.9297    307.64429    207.12172    1.7162948    4715.5929   -21808.776   -51773.069            0    3873914.6    157.05437    157.05437    157.05437  0.025650496   -10.759136   -10.192855    16.097981  -0.29112733   -1.3803427   -2.1319743 
  151000          755    303.17675    9.3063294   -56127.774   -56653.558      9260.34   -65913.898    2400.8236    302.47915    196.85004    1.6450065    4815.2981   -21857.887   -51773.107            0    3873948.3    157.05482    157.05482    157.05482  0.025650272   -4.3023617    3.7605646    28.460785   -3.9504131    9.6601996   -4.8454875 
  152000          760    304.35929   0.97506196    -56627.93    -56683.02    9296.4599    -65979.48    2380.4053    283.91895    213.43372    2.1068734    4793.3437   -21880.449   -51772.239            0    3874049.4    157.05619    157.05619    157.05619  0.025649603    17.601597   -5.5979804   -9.0784305   -4.1454508   -1.1404206    7.6620708 
  153000          765    304.10394   -4.6266865   -56973.563   -56712.152    9288.6603   -66000.813    2388.2267    318.27915    204.91049    1.8935552    4756.2655   -21899.299   -51771.089            0    3874159.7    157.05768    157.05768    157.05768  0.025648872       23.471   -18.505243   -18.845817   -4.5403989    2.7640766    6.6012178 
  154000          770    304.58597   -3.5460536   -56941.682   -56741.325    9303.3838   -66044.709    2398.8964    292.18997    198.29204    1.3548481    4731.8372   -21897.695   -51769.584            0    3874214.7    157.05842    157.05842    157.05842  0.025648509    16.652676   -3.4113274   -23.879509    3.6446008   0.70719417    7.8846235 
  155000          775    303.93919    10.683163   -56166.419   -56770.038    9283.6283   -66053.666    2387.2113    295.70439    208.13591    1.5169725    4725.9096   -21902.175   -51769.969            0    3874241.8    157.05879    157.05879    157.05879  0.025648329    8.6118677    5.9087719    17.528848  -0.23386314   -10.398289    4.2444998 
  156000          780    303.60936    7.9209868   -56351.148   -56798.711    9273.5537   -66072.265    2301.6137    274.13573    213.37969    1.9026329    4805.8131   -21898.974   -51770.136            0    3874352.6    157.06028    157.06028    157.06028  0.025647595    9.3921537    8.7849756     5.585831    7.7652146    5.1229577   -7.7479289 
  157000          785    302.03663    9.0722938   -56314.015   -56826.657    9225.5156   -66052.173    2375.3955    281.38353    202.80053    1.7833319    4767.6687   -21910.467   -51770.737            0      3874550    157.06295    157.06295    157.06295  0.025646288     6.023006    3.9787766    17.215099   -6.7022252    5.3402694   -15.009905 
  158000          790    302.28986   -10.252948   -57433.578   -56854.184    9233.2505   -66087.434    2409.1643    284.98719    202.72825    1.9022573    4691.7088   -21907.173   -51770.752            0    3874800.2    157.06633    157.06633    157.06633  0.025644633   -15.699755   -5.9410586   -9.1180303    1.4099477    15.384387   -6.0944668 
  159000          795    301.21255    15.932116   -55980.755   -56881.122    9200.3449   -66081.467    2384.1125    298.46345    213.46895      2.28346    4718.4124   -21926.308   -51771.899            0    3874986.1    157.06884    157.06884    157.06884  0.025643403    21.627049    6.7155453    19.453754   -18.635529   -11.215602    16.997696 
  160000          800    299.46598   -2.7598816   -57063.361   -56907.381    9146.9968   -66054.378    2347.1739    302.91705    219.04568    2.1403738    4774.7369   -21929.436   -51770.956            0    3875270.3    157.07268    157.07268    157.07268  0.025641522    10.094688   -12.470897   -5.9034356   -10.720149   -4.2307585    20.904709 
  161000          805    298.92407    2.6982169   -56780.365   -56932.871    9130.4447   -66063.316       2428.1    282.79519    207.81911     1.817473    4743.3144   -21958.917   -51768.245            0    3875551.4    157.07648    157.07648    157.07648  0.025639662    35.039058   -20.272291   -6.6721162   -16.166781   -6.0497016    21.561301 
  162000          810    300.53263   -15.104496   -57811.234   -56957.457    9179.5771   -66137.034    2358.4201    272.77038    200.15249    1.6314569    4762.2491    -21966.65   -51765.607            0    3875808.6    157.07996    157.07996    157.07996  0.025637961   -2.4717942   -27.244383    -15.59731   -11.153643     14.61682     1.614437 
  163000          815    297.87627    19.984473   -55851.995   -56981.656    9098.4401   -66080.097    2393.2975    290.43115    210.90946    1.7723166    4777.3776   -21988.371   -51765.513            0    3875964.3    157.08206    157.08206    157.08206  0.025636931    19.509524    5.1410131    35.302881   -2.7937566   -8.9109508    15.530961 
  164000          820    299.59368    10.271624   -56424.187   -57004.856    9150.8975   -66155.753    2393.1219    268.38851    209.20954    1.7825437    4707.4923   -21969.548     -51766.2            0    3876262.9    157.08609    157.08609    157.08609  0.025634956   -11.102636    11.062853    30.854655   -15.717243   -3.4799033    3.6142761 
  165000          825    298.89715    22.393122   -55761.789   -57027.844    9129.6225   -66157.466    2371.4436    284.50954    201.34431    1.7922234    4714.6736   -21965.159   -51766.071            0    3876699.7    157.09199    157.09199    157.09199  0.025632067    15.220518    19.382762    32.576085   0.19852928   0.46077475    6.2550486 
  166000          830    300.71018   -4.6069803   -57310.566   -57050.056    9185.0002   -66235.057    2338.1883     284.2029    199.52964    1.7443719     4652.847   -21946.204   -51765.365            0    3877312.6    157.10027    157.10027    157.10027  0.025628016   -6.3930912  -0.82675209   -6.6010975  -0.54994754    16.040726   -7.6970384 
  167000          835    299.10086   -2.7188089   -57225.595   -57071.832    9135.8445   -66207.676    2353.2035    311.28012    212.80198    2.1923385    4621.7886   -21943.551   -51765.392            0    3877899.9     157.1082     157.1082     157.1082  0.025624134    14.658644   -15.278213   -7.5368568    13.873308 -0.083817561    0.7033463 
  168000          840     298.4173   -5.6577773   -57412.815   -57092.795    9114.9655    -66207.76    2354.2245    281.96438     215.3726      2.16487    4641.8068   -21937.587   -51765.706            0    3878429.1    157.11535    157.11535    157.11535  0.025620638    8.9182828  -0.27984845   -25.611766   -8.1186359  -0.97768965    11.210059 
  169000          845    299.47162   -3.3872851   -57304.774   -57113.156    9147.1691   -66260.325    2334.3171    282.80545    201.93132    1.7249172    4633.2437   -21949.125   -51765.223            0    3878894.7    157.12164    157.12164    157.12164  0.025617563    5.5808217   -12.445724   -3.2969532    3.9069773   -2.3087254   -2.2252065 
  170000          850    298.41066   -2.4482575    -57271.77   -57133.258    9114.7629   -66248.021    2356.4909    273.14514    198.76589    1.5233528    4665.4822   -21978.689   -51764.739            0    3879306.1    157.12719    157.12719    157.12719  0.025614846   -4.7788335     5.827276    -8.393215   -6.1801496    5.0328816    1.5287505 
  171000          855    297.33506     10.60513    -56552.55   -57152.603    9081.9092   -66234.512    2359.2748    257.75794    208.18167    1.5509433     4718.974   -22015.993   -51764.258            0    3879695.8    157.13245    157.13245    157.13245  0.025612273   -0.3294321    2.5249885    29.619834   -2.5648121   -2.5452437   -13.608241 
  172000          860    297.60674    16.345485   -56246.681   -57171.648    9090.2075   -66261.855    2423.9373    256.52121    210.86747    1.6660085    4656.5844   -22046.335   -51765.097            0    3880185.2    157.13906    157.13906    157.13906  0.025609043   -1.9759264    36.126832    14.885549   -21.882604  -0.61880929    19.832732 
  173000          865    298.87493    8.7768609   -56693.032   -57189.784    9128.9438   -66318.727    2345.0756     298.6857    211.87866     1.978555    4647.5968   -22059.463    -51764.48            0      3880829    157.14775    157.14775    157.14775  0.025604794   -1.3330987    18.759807    8.9038743   -6.9045042   -2.4683746   -3.3809022 
  174000          870    298.97129   -7.9739085   -57659.384   -57207.993    9131.8868    -66339.88    2378.2884    294.14527    200.03312    1.6895243    4631.0784   -22081.741   -51763.374            0      3881554    157.15754    157.15754    157.15754  0.025600012  -0.84801212   -5.4263813   -17.647332   -5.8661508     9.249411    9.5959693 
  175000          875    298.72844   -26.501721   -58725.746   -57225.283    9124.4693   -66349.752    2421.4592     301.2331    198.47786    1.7241561    4602.8555   -22113.218   -51762.284            0    3882177.5    157.16595    157.16595    157.16595    0.0255959   -8.4133398   -46.311182   -24.780641   -1.2395924   -2.2978053   -10.268952 
  176000          880    298.36812   -9.5715147   -57784.753   -57242.785    9113.4633   -66356.249    2377.9811     302.1112    204.80633    1.8029494    4684.4717   -22162.896   -51764.526            0    3882544.9    157.17091    157.17091    157.17091  0.025593478   -8.5828652   -18.450725   -1.6809541   -1.0591183    6.3891025    14.655096 
  177000          885    295.78019  -0.78863326   -57304.133   -57259.475    9034.4168   -66293.892    2380.7819     314.7547    218.88502    1.8737593    4763.7972   -22207.788   -51766.197            0    3882783.7    157.17413    157.17413    157.17413  0.025591904   -14.307997    10.205331    1.7367663    10.245269   -9.0926092   -2.3637261 
  178000          890      297.282    3.9966735   -57049.165   -57275.495    9080.2886   -66355.784     2451.464    285.49639    212.66968    1.7057021    4696.6901   -22237.384   -51766.426            0    3883007.1    157.17715    157.17715    157.17715  0.025590431   -11.813877    10.552597    13.251301    15.812464   0.63211009    12.543699 
  179000          895    298.19698    -3.807098    -57506.56   -57290.953    9108.2361   -66399.189    2401.1284    289.89902    206.22896     1.940927    4705.0878   -22238.972   -51764.502            0    3883242.1    157.18032    157.18032    157.18032  0.025588883    -1.532447  -0.51455564   -9.3742912   0.74253354   -4.2856018   -23.935319 
  180000          900    300.87297    8.5349059    -56822.76   -57306.145    9189.9726   -66496.117    2343.5154    287.33352    197.90418    1.7778575    4655.5843   -22220.141   -51762.092            0    3883457.2    157.18322    157.18322    157.18322  0.025587466    15.951004   -1.7654205    11.419134    3.9560972    11.849877    4.9646502 
  181000          905    301.23035    -10.37624   -57909.213   -57321.503    9200.8884   -66522.392    2401.5308    283.15618    187.22014    1.2899179    4554.1456   -22190.733   -51759.001            0    3883709.6    157.18662    157.18662    157.18662  0.025585802   -15.261156   -1.1213615   -14.746202   -1.8794572   -5.3204374   -15.683018 
  182000          910     301.8697  -0.95133603   -57390.419   -57336.533     9220.417    -66556.95    2352.8894    296.83656    203.29785    1.8448186    4546.1765   -22201.357   -51756.638            0    3883881.8    157.18895    157.18895    157.18895  0.025584668   -3.3793262   -3.9568147    4.4821328    6.3822538    7.4024819    18.978657 
  183000          915    299.74305   -16.099829   -58263.827   -57351.868    9155.4598   -66507.328    2301.2212     285.7667     217.4906    2.5197958    4678.8519   -22238.927   -51754.251            0    3883991.1    157.19042    157.19042    157.19042  0.025583949   -22.397786    -17.14671   -8.7549917   -2.2756261   -12.537311   -14.133873 
  184000          920     300.4548    3.4926877   -57168.997   -57366.835    9177.1998   -66544.035    2362.0464    281.32633    193.80384    1.7539071    4680.0694   -22308.673   -51754.362            0    3883965.7    157.19008    157.19008    157.19008  0.025584115    7.5473194    2.9933077 -0.062564226    4.9849778    6.6604618   0.25910735 
  185000          925     299.9013   -6.1114588   -57728.392    -57382.22    9160.2933   -66542.514    2417.8311    295.60888      190.167    1.3971061    4672.2685     -22364.8   -51754.987            0      3883919    157.18945    157.18945    157.18945  0.025584423   -28.359746    20.860696   -10.835326    -1.757247   -3.7575449   -13.821559 
  186000          930    302.12669    23.931447   -56041.882   -57397.408    9228.2665   -66625.675    2320.4061    296.30198    206.31802    1.9153009    4740.3354   -22435.343   -51755.609            0    3883854.6    157.18858    157.18858    157.18858  0.025584848    27.219473    44.611092 -0.036223635   0.54562942    4.4072724    11.374917 
  187000          935    301.47191   -1.5523229   -57500.674   -57412.745    9208.2666   -66621.011    2365.7587    297.58868    208.62965    2.1336322    4755.3035   -22495.333   -51755.092            0    3883964.9    157.19007    157.19007    157.19007  0.025584121     4.814585    -9.518982  0.047428411    4.7880106    17.769172    2.6556836 
  188000          940    302.76868    5.2739467   -57129.338   -57428.084    9247.8757    -66675.96    2397.1269    280.09796    184.72045    1.3565382    4784.2936   -22568.488   -51755.067            0    3884099.2    157.19188    157.19188    157.19188  0.025583236    34.295615   -25.620189    7.1464144    6.3120671    3.0731732     9.481247 
  189000          945    301.47585   -6.1821561   -57793.803   -57443.597    9208.3872   -66651.985    2342.6464    299.10085    195.73204    1.6024976    4898.9247   -22634.856   -51755.135            0      3884252    157.19394    157.19394    157.19394   0.02558223   -5.9276504   -28.969986    16.351168    6.8350669   -1.4433307   -5.8082913 
  190000          950     301.6127   0.90193374    -57408.54   -57459.634    9212.5669   -66672.201    2405.0786    301.66092     217.4938    2.0267295    4845.1624   -22688.083    -51755.54            0    3884357.3    157.19536    157.19536    157.19536  0.025581537    4.1203477    -8.612133    7.1975865   -2.7600045   -25.455693     14.75893 
  191000          955    302.93372   -6.2858691   -57831.696   -57475.598    9252.9167   -66728.515    2398.8079    291.08605    206.33107     1.520452    4857.4165    -22727.53   -51756.146            0    3884441.2    157.19649    157.19649    157.19649  0.025580984   -24.667887    -4.940038    10.750318    5.5880907   -9.9631266    4.1499321 
  192000          960    305.10823    8.5525784   -57007.844   -57492.357    9319.3358   -66811.693     2371.233    297.44295    193.02509    1.3660184    4837.0332    -22754.53   -51757.263            0    3884474.8    157.19695    157.19695    157.19695  0.025580762    22.108146   -1.6062445     5.155834    10.198611    1.1759673   -0.2679957 
  193000          965    305.41212    13.170337   -56763.363   -57509.497    9328.6179   -66838.115    2363.1235    301.74523    201.06672    1.7766992    4825.1903   -22772.852   -51758.166            0    3884576.6    157.19832    157.19832    157.19832  0.025580092    1.7831852    25.397547    12.330279    16.585555    16.112199   -24.244615 
  194000          970    302.65064     14.26152   -56719.567   -57527.567    9244.2704   -66771.837    2431.2737    302.23932     207.5656    1.8505295    4819.2014   -22775.686   -51758.282            0    3884807.4    157.20143    157.20143    157.20143  0.025578573    10.365693    10.932156    21.486711  -0.63126161    20.929474   -10.824215 
  195000          975    304.92476    6.5269957   -57176.017   -57545.845    9313.7318   -66859.577     2372.641    284.60565    195.53978    1.4988696    4816.1907   -22772.445   -51757.607            0    3885173.7    157.20637    157.20637    157.20637  0.025576161   -5.7114914   -0.8494726    26.141951   -15.052707    16.710442    4.8174292 
  196000          980    305.41844    -10.87717     -58181.1    -57564.72     9328.811   -66893.531    2375.9381    278.82723    197.02104    1.7150986     4773.934   -22764.084   -51756.883            0    3885585.8    157.21193    157.21193    157.21193  0.025573448    1.5604804   -43.345594    9.1536039   -24.483659    8.8089442    15.227503 
  197000          985    303.74889    -6.655257   -57961.115    -57583.95    9277.8155   -66861.765    2353.8088    289.44378    213.75785    1.8994941    4810.5515   -22774.977    -51756.25            0    3885895.5    157.21611    157.21611    157.21611   0.02557141   -8.2081054   -9.3071328   -2.4505328   -13.645696   -16.621104   -9.2151948 
  198000          990     302.5748   -0.8689845   -57652.388   -57603.139    9241.9537   -66845.092    2399.6531    269.12222    219.70111    1.8088898    4812.6689   -22792.513   -51755.534            0    3886119.3    157.21913    157.21913    157.21913  0.025569938   -4.7616573   0.13789853    2.0168053   -8.1031417   -8.8718965    -3.065082 
  199000          995    304.48936    15.948555   -56718.905   -57622.842    9300.4328   -66923.275    2333.5525    305.15041    197.77619    1.5436229    4814.8991     -22820.5   -51755.697            0      3886342    157.22213    157.22213    157.22213  0.025568472   0.79411133    40.560438    6.4911153   -1.9913926   -9.5531649   -9.1809675 
  200000         1000    304.61725    14.318951   -56831.176   -57642.825    9304.3392   -66947.164    2352.7578    289.64592    187.44817    1.5563531    4820.3541   -22843.244   -51755.683            0    3886703.4      157.227      157.227      157.227  0.025566095    22.593561    11.403665    8.9596279    2.7338776    20.288061     10.19411 
  201000         1005    301.85128    21.077494   -56468.576   -57663.485    9219.8545   -66883.339    2362.3186    290.31035    206.15739    1.8859685    4875.6943   -22864.557   -51755.149            0    3887226.4    157.23405    157.23405    157.23405  0.025562655    17.990928    33.252585     11.98897    8.4046525    1.6627039   -9.9122958 
  202000         1010    301.10608    9.8074246   -57127.498   -57683.595    9197.0927   -66880.687    2401.1696     286.4853      202.729    1.5025588     4843.036   -22862.124   -51753.486            0    3887942.9    157.24371    157.24371    157.24371  0.025557944   -1.6858363    19.550481    11.557629    2.8014738    16.146712   -5.0957075 
  203000         1015     302.8383    11.016651   -57079.115   -57703.911    9250.0022   -66953.913    2360.1672    276.30768    185.41239    1.2223367    4843.2114   -22867.388   -51752.847            0      3888776    157.25494    157.25494    157.25494  0.025552469   -2.7714891    25.914569    9.9068747   -10.747985   -7.0626386   -1.4720072 
  204000         1020    301.53085   -2.0827535   -57842.212   -57724.063     9210.067    -66934.13    2367.1251    288.72424    195.00483    1.7230707    4824.6945   -22859.646   -51751.756            0    3889697.1    157.26736    157.26736    157.26736  0.025546418   -1.3401638   -4.8788789 -0.029217719   -15.435837     -1.20248    10.678584 
  205000         1025       302.78   -6.1741508   -58094.558   -57744.234    9248.2216   -66992.456    2404.4347    273.58821    203.00975    2.0722369    4738.9659   -22862.252   -51752.274            0    3890599.9    157.27953    157.27953    157.27953   0.02554049   0.70468361   -10.376587   -8.8505488   -4.6293826    -12.77275    11.525049 
  206000         1030     303.3869   -5.5767637   -58080.972   -57764.477     9266.759   -67031.236    2407.9575     267.1099    189.98986    1.6073896    4722.7753   -22869.422   -51751.254            0    3891423.3    157.29062    157.29062    157.29062  0.025535086   -12.159266    5.4608028   -10.031828    16.043329   -1.7839348   -1.8906495 
  207000         1035    301.29591    9.5276141   -57243.872   -57784.695     9202.891   -66987.586    2385.2021    269.87342    181.18197    1.3519901    4812.1134   -22887.152   -51750.157            0    3892198.1    157.30106    157.30106    157.30106  0.025530002    3.3097221    19.123741     6.149379    12.900837   -3.3302817    11.350949 
  208000         1040     300.4509   -2.1476052   -57926.768   -57804.835    9177.0805   -66981.916     2423.404    285.84211    188.00842    1.5747575    4768.0184   -22900.787   -51747.976            0      3893031    157.31228    157.31228    157.31228  0.025524541   -6.7486058   0.56908099   -0.2632908    16.613784    12.978791    3.8575329 
  209000         1045    301.17169    0.2227605   -57811.752   -57824.402    9199.0966   -67023.499    2400.0053    287.82271    183.37647    1.4267985    4770.6576   -22919.596   -51747.191            0    3893853.2    157.32335    157.32335    157.32335  0.025519151    11.248592   -17.306774    6.7264631    10.616935     9.548075    6.0965188 
  210000         1050    301.32153   -1.5639225   -57933.127   -57844.297    9203.6733    -67047.97    2372.7322    285.60061    177.68973    1.1925431    4795.8143   -22934.999   -51746.001            0    3894656.3    157.33417    157.33417    157.33417  0.025513889    9.3650264   -14.074858  0.018064118    5.7536418    17.502245   -11.829218 
  211000         1055    300.23605    11.512613   -57209.759   -57863.805    9170.5183   -67034.323    2400.6394    281.42772    191.35218    1.6525528    4794.8968   -22958.226   -51746.066            0    3895457.2    157.34495    157.34495    157.34495  0.025508643     14.58928    4.7133241    15.235235   -20.258033   -2.3995595 -0.084590892 
  212000         1060    301.71002    3.6482853   -57676.134   -57883.445    9215.5395   -67098.985    2394.3976    268.41152    199.67217    2.1044525    4764.8443   -22982.715     -51745.7            0    3896343.2    157.35688    157.35688    157.35688  0.025502843    8.8867243   -9.8637543    11.921886    -19.24115    3.6615065    10.606175 
  213000         1065    301.59304    8.1343989   -57440.559   -57902.901    9211.9665   -67114.867    2319.5726    289.04237    200.84426    2.1708412    4830.3952   -23010.343   -51746.549            0    3897279.3    157.36948    157.36948    157.36948  0.025496717    8.6105665    3.5390733    12.253557   -1.5954993   -11.125557    8.0485699 
  214000         1070    301.27882   -11.861689   -58596.624   -57922.262    9202.3688   -67124.631    2347.4311     298.2702     195.3651    1.7181953    4808.3359    -23029.92   -51745.831            0    3898256.1    157.38263    157.38263    157.38263  0.025490328   0.55248268   -17.215734   -18.921816    23.509458  -0.67473835   -12.336849 
  215000         1075    302.15996   -6.5723234   -58315.191   -57941.457    9229.2827    -67170.74    2413.4336    269.53991    186.66053    1.3174207    4763.4464   -23059.898    -51745.24            0    3899127.3    157.39435    157.39435    157.39435  0.025484633   -4.7394086     19.27814   -34.255701    12.379227   -17.547179   -14.865074 
  216000         1080    302.46777   -4.6699518   -58226.071   -57960.462    9238.6847   -67199.147    2355.6828    282.97278    189.24663    1.3801298    4813.4115   -23098.081   -51743.759            0    3899901.9    157.40477    157.40477    157.40477  0.025479571   -2.1429088   -3.1523422   -8.7146045   -4.7719763   0.16934225    6.9597536 
  217000         1085    300.18151    15.771449   -57082.601    -57979.79    9168.8523   -67148.642    2339.9029    283.90923    204.74598    1.6276729    4912.9261   -23148.841   -51742.913            0    3900644.4    157.41476    157.41476    157.41476  0.025474721    23.797044    9.6687253    13.848578    -17.37114   -2.0680874    17.627441 
  218000         1090    298.52927    1.8717322   -57891.963   -57998.463    9118.3856   -67116.849     2430.377    283.49135    212.45211    1.6048876    4864.5468    -23168.12   -51741.201            0      3901501    157.42628    157.42628    157.42628  0.025469128    16.210722   -17.513846    6.9183204   -8.8622273    1.8133032    9.7915002 
  219000         1095     300.5632    14.619356    -57185.15   -58017.176    9180.5108   -67197.687    2374.1337    277.27186     201.6725    1.4843934    4865.4701   -23178.012   -51739.708            0    3902410.7    157.43852    157.43852    157.43852  0.025463191    30.371411    11.115785    2.3708722   -3.8201744   -8.5491601   -6.8816598 
  220000         1100    300.92652    1.7070613    -57938.36   -58035.539    9191.6083   -67227.147    2346.3709    309.06328    190.87859    1.6269446    4824.4428   -23162.462   -51737.068            0    3903431.4    157.45224    157.45224    157.45224  0.025456532  -0.50181032    4.2869435    1.3360507    4.8555019   -10.228751   0.60749865 
[...]
 1949000         9745    303.29832     23.43819   -70628.397   -71520.951    9264.0533   -80785.005    2417.5058    195.16849    154.70145   0.84674517     5423.083   -37002.423   -51973.887            0    2611166.1    137.70345    137.70345    137.70345  0.038054962    19.311871    32.368184    18.634517   -20.643421   -11.300563   -3.5862221 
 1950000         9750    303.81313  -0.38882881   -71538.339    -71523.53    9279.7778   -80803.308    2425.0208    189.80216    157.88358   0.84187134    5416.1807   -37019.519   -51973.518            0    2611395.1    137.70748    137.70748    137.70748  0.038051625   -6.6194438    15.723623   -10.270666    -2.287182   -18.759269   -3.2346901 
 1951000         9755    302.16304  -0.18047474   -71533.147   -71526.274     9229.377    -80755.65    2459.3073    196.89595    159.99045   0.93738326    5440.7198   -37039.105   -51974.396            0    2611626.9    137.71155    137.71155    137.71155  0.038048249    1.4706506    16.658764   -18.670839   -13.955615     1.018777   -14.702916 
 1952000         9760    301.83449    10.851451   -71115.693   -71529.037    9219.3416   -80748.379    2434.7799    196.79193    159.09148   0.93389302    5495.0435   -37059.895   -51975.125            0    2611852.1    137.71551    137.71551    137.71551  0.038044968    22.414739    13.883387   -3.7437722  -0.77354341     17.91305    1.4332622 
 1953000         9765     301.1514     26.47954   -70523.191   -71531.934    9198.4771   -80730.411     2420.025    204.95982    156.64984   0.95981066    5548.8704   -37086.312   -51975.564            0    2612126.8    137.72034    137.72034    137.72034  0.038040966    44.974328    35.339722  -0.87542966   -14.678061    3.3084158    16.769621 
 1954000         9770    301.45666    18.796707   -70818.669   -71534.838    9207.8009   -80742.639     2451.207    198.32465    156.94539    1.0673972    5534.7584   -37110.675   -51974.267            0    2612508.3    137.72704    137.72704    137.72704  0.038035412    20.711127    26.489241    9.1897544    6.5589681   -19.122106   0.24595465 
 1955000         9775    301.50076    30.391482   -70379.697   -71537.846    9209.1478   -80746.994    2449.6079    193.40225    158.02912    1.1441703    5539.8329    -37115.03    -51973.98            0    2612984.1     137.7354     137.7354     137.7354  0.038028486     19.49559    41.266168    30.412689   -15.822573   -10.436736   -26.495861 
 1956000         9780     302.0083    33.339461   -70270.193   -71540.978    9224.6503   -80765.628    2448.7972    194.58416    151.39955   0.94685514    5516.7835   -37103.865   -51974.275            0    2613590.5    137.74606    137.74606    137.74606  0.038019662    10.448333    36.016216    53.553834     -5.91081     3.880254   -22.124108 
 1957000         9785    301.60926    27.807279   -70484.079   -71544.303     9212.462   -80756.765    2467.7982    194.61011    147.88195   0.78807521    5492.4241   -37085.168     -51975.1            0      2614347    137.75935    137.75935    137.75935  0.038008661     23.32165    11.035986    49.064202    -15.98792   -1.4621924   -7.8040117 
 1958000         9790    301.11453     -1.92045   -71620.652   -71547.406    9197.3509   -80744.756    2456.3788     197.6339    150.43654   0.83573123    5496.7664   -37071.854   -51974.954            0    2615209.3    137.77449    137.77449    137.77449  0.037996128   -10.088548    1.8671055    2.4600923      9.26484   -24.896716    4.1505439 
 1959000         9795    300.38547 -0.0064825237   -71550.575   -71550.328    9175.0821    -80725.41     2424.923    195.02871    151.71312   0.85773262    5522.4763    -37045.62   -51974.788            0    2616065.5    137.78953    137.78953    137.78953  0.037983692    22.695259   -20.317014   -2.3976926   -7.1138104   -10.029638   -19.625914 
 1960000         9800    299.42325    2.7333112   -71448.777   -71553.094    9145.6916   -80698.785    2455.0707    201.98941    154.88623   0.89128362    5469.7984    -37006.68   -51974.741            0    2616900.7    137.80419    137.80419    137.80419   0.03797157     5.601919   -1.5708793     4.168894   -1.5226444    23.933588 -0.066587634 
 1961000         9805     297.1782    28.132864   -70481.907   -71555.941    9077.1181   -80633.059    2450.7799    209.51056    158.70569   0.98976054    5473.6018   -36952.204   -51974.442            0      2617750    137.81909    137.81909    137.81909   0.03795925    3.1153433    17.218927    64.064321   -9.8870056    36.547922      7.61889 
 1962000         9810    297.99405    6.5477154   -71308.359   -71558.422    9102.0377    -80660.46    2453.3878    205.03555    159.30164    1.0305383    5384.8353   -36890.779   -51973.272            0    2618693.4    137.83565    137.83565    137.83565  0.037945575   -34.879057    15.418369    39.103835   -9.1389468    2.1994418    18.479415 
 1963000         9815     298.9173    5.7638042    -71340.27   -71560.477    9130.2379   -80690.715     2451.562    197.82858    156.45056   0.97960433    5313.4673   -36838.975   -51972.028            0    2619668.9    137.85276    137.85276    137.85276  0.037931446    -19.12463     19.80437    16.611673   -14.088767   -18.445067   -24.941189 
 1964000         9820    298.60844   -6.8637678   -71824.558   -71562.229     9120.804   -80683.033    2462.3643    198.37087    155.48619   0.93981242    5288.5853   -36817.429   -51971.351            0    2620643.9    137.86986    137.86986    137.86986  0.037917334    4.1481492    4.1370996   -28.876552   -4.0074183    2.7356041   -24.447596 
 1965000         9825    299.83628    4.3847739   -71396.081   -71563.725    9158.3073   -80722.032    2460.8288    192.37763    156.60187   0.93665685    5273.3281   -36834.344   -51971.761            0    2621585.5    137.88637    137.88637    137.88637  0.037903715    19.964437    20.623333   -27.433448    4.2319619    25.931454   -19.549414 
 1966000         9830    300.63084   -26.906479   -72594.209   -71565.129    9182.5769   -80747.706    2483.9768    188.34837    157.21356   0.97654229       5286.2   -36893.046   -51971.375            0    2622505.1    137.90249    137.90249    137.90249  0.037890423    -17.15228   -6.4367747   -57.130381    4.6294006    20.676258    11.116258 
 1967000         9835    300.96154   -19.987556   -72331.096   -71566.409    9192.6778   -80759.087    2464.2217    187.41018    157.86335    1.0847614     5375.442   -36975.136   -51969.972            0    2623300.5    137.91643    137.91643    137.91643  0.037878934   -18.986243     -3.46803   -37.508395   -23.542845   -7.2416652   -4.2806502 
 1968000         9840    300.08498   -24.644603   -72511.101   -71568.004    9165.9037   -80733.908    2503.7374    189.68776     161.1358    1.2354353    5443.0497   -37063.086   -51969.668            0    2623968.1    137.92813    137.92813    137.92813  0.037869297   -40.710059    -5.199376   -28.024374   -17.928481   -1.5966551    1.7911442 
 1969000         9845    303.23045    14.034231   -71032.579   -71569.754    9261.9802   -80831.734    2445.4837    188.22254    162.47699    1.1724237    5479.1371    -37137.03   -51971.197            0    2624528.2    137.93794    137.93794    137.93794  0.037861216   -13.117922    19.665504    35.555111   -19.855938   -8.1521464    1.1244728 
 1970000         9850    303.57884    4.9470825   -71382.773    -71572.17    9272.6215   -80844.791    2471.6173    196.45156    156.34859   0.86400909    5497.5446   -37194.744   -51972.873            0    2625113.4    137.94819    137.94819    137.94819  0.037852776    -33.69911    18.126661    30.413696   -9.8864452     1.112851    19.104062 
 1971000         9855    304.19462    10.533891   -71171.659   -71575.038    9291.4302   -80866.468    2474.5074    200.47932    152.83503   0.75745387     5505.825   -37228.034   -51972.839            0    2625724.2    137.95889    137.95889    137.95889  0.037843971    16.807961    18.846902   -4.0531893   -15.409935   -12.204223    7.1638812 
 1972000         9860    303.95379   -8.1080178    -71888.98   -71578.421    9284.0743   -80862.496    2504.1003    210.57177     153.5557   0.90212959    5475.8981   -37233.906   -51973.617            0    2626352.9     137.9699     137.9699     137.9699  0.037834911    7.5408084    3.9773707   -35.842232    5.0681232     20.98688    1.7533431 
 1973000         9865    305.57072    15.870291   -70974.426    -71582.44    9333.4623   -80915.902    2441.3068     211.2283    150.16598   0.97166994    5468.5971   -37212.734   -51975.438            0    2626955.9    137.98046    137.98046    137.98046  0.037826226    49.832452    10.271587   -12.493166    1.3525297    19.096559    1.2286901 
 1974000         9870    305.63883   -1.3702567    -71639.83   -71587.321    9335.5425   -80922.863    2474.9613    195.23339    149.40243   0.97024581    5408.6525   -37174.957   -51977.126            0    2627595.3    137.99166    137.99166    137.99166  0.037817021   -9.7769368   -23.226877    28.893043    8.3307026    18.671742    18.168393 
 1975000         9875    305.12192   -7.4140252   -71877.231   -71593.051    9319.7539   -80912.805    2471.5989    209.38343    149.31821   0.93772012    5365.4099   -37133.356   -51976.097            0    2628226.9    138.00271    138.00271    138.00271  0.037807934   -13.205755   -34.262775    25.226454   -23.002708   -26.058251   -1.5870922 
 1976000         9880    305.76045   -26.340719   -72609.418   -71599.561    9339.2574   -80938.818    2472.3912    195.45722    147.87202   0.86383921     5313.976    -37094.11   -51975.268            0    2628795.1    138.01265    138.01265    138.01265  0.037799762   -52.002848   -40.983071     13.96376   -21.181523   -22.301214   -5.8196607 
 1977000         9885    306.13408   -7.0844455   -71878.641   -71606.989    9350.6698   -80957.659    2434.8047    189.01203    150.65689    0.9400307    5309.7642   -37067.466    -51975.37            0    2629243.6     138.0205     138.0205     138.0205  0.037793313   -39.763116    11.060738    7.4490413   -34.341738   -20.108916   -8.4863745 
 1978000         9890    304.53253   -4.1360205   -71774.024   -71615.405    9301.7513   -80917.157    2442.5575    187.28843    154.32044     1.056297    5335.2941    -37059.91   -51977.763            0    2629635.1    138.02735    138.02735    138.02735  0.037787687   -61.724558     15.43264    33.883857   -10.033796    15.132536    14.776581 
 1979000         9895     303.1346   -4.6870784   -71804.113   -71624.337    9259.0524   -80883.389    2445.2085    194.54725    151.73725   0.95611325    5384.4368   -37081.354   -51978.921            0    2629997.9     138.0337     138.0337     138.0337  0.037782474   -30.442945    17.562157   -1.1804466   -4.1337595   -9.4025974     16.76753 
 1980000         9900    304.03488     -22.2866   -72488.718   -71633.794     9286.551   -80920.345    2434.1892    195.92703    151.34601   0.85331314    5380.6542   -37104.545   -51978.769            0      2630317    138.03928    138.03928    138.03928  0.037777891   -14.854925   -18.466039   -33.538837     21.36261    12.197817    13.528848 
 1981000         9905      302.391   -13.174614   -72148.988   -71643.562    9236.3397   -80879.902    2474.9669    200.84664    156.26424   0.90480228    5400.2063   -37135.682   -51977.408            0    2630532.3    138.04305    138.04305    138.04305  0.037774799    10.179728   -23.983792   -25.719779    5.4887665   -18.604329    14.446844 
 1982000         9910    302.38417      2.33792   -71564.045   -71653.741     9236.131   -80889.872    2458.8653    190.71413    154.70345   0.91723786    5429.8683   -37148.476   -51976.464            0    2630675.3    138.04555    138.04555    138.04555  0.037772745   -22.324758     1.523443    27.815075    10.184143    15.989824    25.831045 
 1983000         9915    303.77482    13.547679     -71144.2   -71663.996    9278.6075   -80942.603    2398.2097    198.92666    149.42397    0.9493354    5454.1149   -37169.014   -51975.213            0    2630824.4    138.04816    138.04816    138.04816  0.037770605  -0.30739656   -11.758183    52.708615   -29.491794   -18.995411    23.577856 
 1984000         9920    302.47259   -2.2261909   -71759.997   -71674.576     9238.832   -80913.408     2469.673    188.91107    147.91693   0.96520612    5434.6147   -37181.868   -51973.622            0    2631019.5    138.05157    138.05157    138.05157  0.037767804   -17.939174    6.0730791    5.1875222   -14.713747    9.4206408    4.0428033 
 1985000         9925    299.97475   -3.5189114   -71819.919   -71684.887    9162.5369   -80847.424    2531.1821    192.70616    149.52329   0.87403839    5462.8416   -37210.953   -51973.598            0    2631205.8    138.05483    138.05483    138.05483   0.03776513    9.5806232   -17.962975   -2.1743819   -34.658975   -17.155646   -2.9710461 
 1986000         9930    301.76748    12.426932   -71217.944   -71694.839    9217.2948   -80912.133     2426.527    199.98108    154.75391   0.94066952    5500.2777   -37218.141   -51976.473            0    2631375.5     138.0578     138.0578     138.0578  0.037762694    7.8764444    13.848942    15.555409    11.747762    27.453196    3.3053287 
 1987000         9935    300.45948    14.700399   -71140.411   -71704.599    9177.3426   -80881.942    2432.6012    205.56548      155.808    1.0910736    5508.9752   -37206.526   -51979.457            0    2631595.3    138.06164    138.06164    138.06164   0.03775954    33.786055   -17.057397    27.372539    -5.743878   -12.452954    9.9677073 
 1988000         9940    298.87637  -0.90595686   -71748.621   -71713.847    9128.9875   -80842.835     2520.446     186.5625    147.90959   0.98432377    5436.4194   -37154.643   -51980.513            0    2631872.3    138.06649    138.06649    138.06649  0.037755566    4.1176846   -9.9590589    3.1235038    14.307122    6.5214044   -2.5942859 
 1989000         9945    299.56919   -11.090309   -72148.171   -71722.447    9150.1495   -80872.596    2455.8744    195.29588    149.07675   0.90872956    5405.3704   -37097.971   -51981.152            0    2632139.7    138.07116    138.07116    138.07116   0.03775173    7.3004236   -24.734335   -15.837015   -33.388339   -20.505808     6.923681 
 1990000         9950    301.39841   -3.0533199     -71847.8   -71730.582    9206.0216   -80936.604    2371.9394    205.26239    156.91168    1.0258479    5344.3772   -37032.561   -51983.559            0    2632355.1    138.07493    138.07493    138.07493  0.037748641   -11.463934   -5.0361614    7.3401359    -8.387935    17.012107    15.481394 
 1991000         9955    299.11679   -13.382277   -72252.262   -71738.478     9136.331   -80874.809    2478.7709    185.43498    157.27074     1.071411    5276.5733   -36987.463   -51986.468            0    2632538.5    138.07813    138.07813    138.07813  0.037746011   -15.521725   -17.903784   -6.7213232   -21.036456    11.444098    25.912008 
 1992000         9960    299.03972   -15.647443   -72346.488   -71745.711    9133.9769   -80879.688    2451.9388    188.47482     157.3796    1.0316801    5259.5388   -36949.817   -51988.235            0    2632656.5     138.0802     138.0802     138.0802  0.037744319   -28.686773   -20.370926    2.1153714    13.398087    16.995215    9.6951244 
 1993000         9965    300.89222   -30.107712   -72908.405    -71752.42    9190.5603    -80942.98    2405.7382    187.84021    159.42209   0.97918258     5233.283   -36941.228   -51989.015            0    2632682.2    138.08065    138.08065    138.08065  0.037743951   -18.158871   -30.934686   -41.229581     6.293805   -15.335772   -11.856523 
 1994000         9970    299.91843   -19.420349   -72504.438   -71758.826    9160.8167   -80919.643    2438.4748    188.07489     157.0655   0.83206969     5236.185   -36949.559   -51990.716            0    2632569.4    138.07868    138.07868    138.07868  0.037745568    -27.49385   -6.0367624   -24.730433    35.530216   -6.8629994   -1.8478455 
 1995000         9975    297.99356   -5.6080369   -71980.169   -71764.875    9102.0228   -80866.898    2468.4712    185.76579    158.58379   0.94016082     5302.984    -36990.11   -51993.533            0    2632356.2    138.07495    138.07495    138.07495  0.037748625   -6.5263613    4.2243963   -14.522146    11.245014   -7.2985915    24.164988 
 1996000         9980    298.22774    12.252665   -71299.788   -71770.128    9109.1756   -80879.303    2413.9419    183.32955     160.1501    1.1221766    5405.2821   -37047.989    -51995.14            0    2632118.5    138.07079    138.07079    138.07079  0.037752035   -14.353401    34.164742    16.946655  -0.64179931    8.1935815     38.91215 
 1997000         9985    297.78203  -0.75167715   -71803.693   -71774.841    9095.5616   -80870.403    2441.3291    191.85908    152.30116   0.98774006    5452.3613   -37114.793   -51994.448            0    2631922.6    138.06737    138.06737    138.06737  0.037754844     23.44243   -12.502038   -13.195424   -31.518266     9.272637    3.6580548 
 1998000         9990     297.8403   0.62892195   -71754.721    -71778.86    9097.3416   -80876.202    2437.9894    208.12457    149.31238   0.87791917    5483.0301   -37161.593   -51993.943            0    2631730.2      138.064      138.064      138.064  0.037757605   -11.631782    21.199327   -7.6807798   0.42604349    14.682765   -7.4570618 
 1999000         9995    298.95254    -1.090847   -71824.345    -71782.48    9131.3142   -80913.795    2445.1851    195.78287    158.29658    1.0778658    5465.1037     -37184.3   -51994.941            0    2631534.6    138.06058    138.06058    138.06058  0.037760411    17.370286   -18.260802   -2.3820257  -0.32789763    9.6357684   -23.057457 
 2000000        10000    301.17697   0.83250823   -71753.839   -71785.786    9199.2581   -80985.045    2434.1302     192.5371    160.46849     1.161013    5402.3304   -37179.446   -51996.225            0      2631335    138.05709    138.05709    138.05709  0.037763275   -29.071032    20.870291    10.698265    21.654375   -4.5510379    4.6348123 
Loop time of 9223.07 on 30 procs for 2000000 steps with 10248 atoms

Performance: 0.094 ns/day, 256.196 hours/ns, 216.848 timesteps/s
-0.0% CPU use with 30 MPI tasks x 1 OpenMP threads

MPI task timing breakdown:
Section |  min time  |  avg time  |  max time  |%varavg| %total
---------------------------------------------------------------
Pair    | 148.55     | 595.48     | 2576.4     |2248.8 |  6.46
Bond    | 6.1577     | 21.729     | 193.02     | 954.2 |  0.24
Kspace  | 3457.3     | 5614.8     | 6087.5     | 797.2 | 60.88
Neigh   | 1.662      | 1.6821     | 1.6948     |   0.8 |  0.02
Comm    | 75.477     | 99.568     | 128.49     | 146.4 |  1.08
Output  | 9.1688     | 9.1833     | 9.5836     |   2.5 |  0.10
Modify  | 1803.6     | 2305.5     | 2850.3     | 915.7 | 25.00
Other   |            | 575.1      |            |       |  6.24

Nlocal:        341.600 ave         786 max         135 min
Histogram: 5 5 3 11 1 2 1 0 1 1
Nghost:        1541.23 ave        2588 max         721 min
Histogram: 2 4 3 10 4 1 0 0 2 4
Neighs:        32210.1 ave      167257 max        4578 min
Histogram: 12 12 4 0 0 0 0 1 0 1

Total # of neighbors = 966302
Ave neighs/atom = 94.291764
Ave special neighs/atom = 7.4012490
Neighbor list builds = 833
Dangerous builds = 0
unfix md1

write_dump all custom radon_md_last.dump id x y z xu yu zu vx vy vz fx fy fz modify sort id
write_data poly_sol_last.data
System init for write_data ...
PPPM initialization ...
  using 12-bit tables for long-range coulomb (src/kspace.cpp:340)
  G vector (1/distance) = 0.18308954
  grid = 64 64 64
  stencil order = 5
  estimated absolute RMS force accuracy = 0.00040945811
  estimated relative force accuracy = 1.2330709e-06
  using double precision MKL FFT
  3d grid and FFT values/proc = 18981 12288
quit
