Generated by RadonPy

10248 atoms
6 atom types
9301 bonds
7 bond types
912 angles
8 angle types
1449 dihedrals
7 dihedral types
150 impropers
1 improper types

-7.8540631073394906e+01 7.8540631073394906e+01 xlo xhi
-7.8540631073394906e+01 7.8540631073394906e+01 ylo yhi
-7.8540631073394906e+01 7.8540631073394906e+01 zlo zhi

Masses

    1	12.011000	# c3,0
    2	1.008000	# hc,0
    3	12.011000	# ca,0
    4	1.008000	# ha,0
    5	12.011000	# c,0
    6	15.999000	# o,0

Pair Coeffs

    1	0.107800	3.397710	# c3,0
    2	0.020800	2.600177	# hc,0
    3	0.098800	3.315212	# ca,0
    4	0.016100	2.625479	# ha,0
    5	0.098800	3.315212	# c,0
    6	0.146300	3.048121	# o,0

Bond Coeffs

    1	375.920000	1.097000	# c3,hc
    2	232.520000	1.538000	# c3,c3
    3	250.320000	1.516000	# c3,ca
    4	378.570000	1.398000	# ca,ca
    5	395.720000	1.086000	# ca,ha
    6	243.220000	1.524000	# c,c3
    7	652.570000	1.218000	# c,o

Angle Coeffs

    1	38.960000	107.580000	# hc,c3,hc
    2	46.816000	109.800000	# c3,c3,hc
    3	65.183000	112.070000	# c3,c3,ca
    4	64.888000	111.510000	# c3,c3,c3
    5	47.281000	110.470000	# ca,c3,hc
    6	65.583000	120.770000	# c3,ca,ca
    7	68.767000	120.020000	# ca,ca,ca
    8	48.680000	119.880000	# ca,ca,ha

Dihedral Coeffs

    1	1	0.155556	3	0.000000	# X,c3,c3,X
    2	1	0.120000	3	0.000000	# hc,c3,c3,hc
    3	2	0.080000	3	0.000000	0.080000	3	0.000000	# hc,c3,c3,c3
    4	3	0.130000	3	0.000000	0.290000	2	180.000000	0.110000	1	0.000000	# c3,c3,c3,c3
    5	1	0.245000	2	180.000000	# c3,c3,ca,ca
    6	1	0.000000	2	180.000000	# hc,c3,ca,ca
    7	1	3.625000	2	180.000000	# X,ca,ca,X

Improper Coeffs

    1	1.100000	-1	2	# ca,X,X,ha

Atoms

    1	1	1	-3.6181241978874634e-01	 8.2187310741139648e+00	-5.4273096231422073e+00	-1.0713355646011742e+00
    2	1	2	 1.2060413992958210e-01	 8.9938996336087911e+00	-4.9605995345599032e+00	-1.6814980431771527e+00
    3	1	2	 1.2060413992958210e-01	 8.1604575861231545e+00	-4.8635186098146779e+00	-1.3805014278667682e-01
    4	1	2	 1.2060413992958212e-01	 8.5650076796402157e+00	-6.4385457719640495e+00	-8.2305549695240787e-01
    5	1	1	 8.6156203661656702e-02	 6.8618041897195390e+00	-5.4987596670820356e+00	-1.7879347649654669e+00
    6	1	1	 1.7916403064736708e-01	 6.5034040027629212e+00	-4.1627796198757956e+00	-2.5112979545555842e+00
    7	1	3	 8.2161706184385296e-03	 5.7073117865605960e+00	-5.9766349317678689e+00	-8.8578964060207677e-01
    8	1	3	-7.8239841599889171e-02	 4.4259355963501754e+00	-6.1593892158435741e+00	-1.4375866143033735e+00
    9	1	3	-1.0814237972180309e-01	 3.3508705244838310e+00	-6.5979351291512902e+00	-6.5576984182234177e-01
   10	1	3	-2.4172870787239426e-01	 3.5320617228732791e+00	-6.8762083148822235e+00	 6.9211808129463381e-01
   11	1	3	-2.0776194152348736e-02	 4.7966041721515378e+00	-6.7311756342803966e+00	 1.2561472169049508e+00
   12	1	3	-2.8549272035141388e-01	 5.8709027723179972e+00	-6.2936486362216577e+00	 4.7530945241099121e-01
   13	1	2	 2.1498344530230515e-02	 6.9556490781780687e+00	-6.2853261217890433e+00	-2.5494418211850869e+00
   14	1	2	-2.8212826953524731e-02	 6.3173508985902975e+00	-3.3900351232938495e+00	-1.7574745263359255e+00
   15	1	2	-2.8212826953523961e-02	 5.5400723019021587e+00	-4.2935520148347042e+00	-3.0214451669530962e+00
   16	1	4	 4.6819470939257861e-02	 4.2485128423517704e+00	-5.9728714870049338e+00	-2.4945232887548268e+00
   17	1	4	 1.3097015401380252e-01	 2.3684168975239865e+00	-6.7202130902879951e+00	-1.1065470032666855e+00
   18	1	4	 1.4861691390182208e-01	 2.6975697853635836e+00	-7.2134077784614554e+00	 1.3016957819921644e+00
   19	1	4	 9.7424932381895216e-02	 4.9508767180215241e+00	-6.9684562338766867e+00	 2.3061045161211862e+00
   20	1	4	 1.4886842636136891e-01	 6.8405624156592406e+00	-6.2194101578291452e+00	 9.6047648649575257e-01
   21	1	1	 8.6156203661656702e-02	 7.5020871257661765e+00	-3.5780911622571399e+00	-3.5745125689799107e+00
   22	1	1	 1.7916403064736708e-01	 6.7468327633513496e+00	-2.4586582566214332e+00	-4.3555104817602306e+00
   23	1	3	 8.2161706184385296e-03	 8.0322107021115237e+00	-4.6923052820886317e+00	-4.4654781614131407e+00
   24	1	3	-7.8239841599889171e-02	 9.3879132524517033e+00	-5.0530847214908770e+00	-4.3981598746889405e+00
   25	1	3	-1.0814237972180309e-01	 9.8833732513251320e+00	-6.1285854774331270e+00	-5.1378560582440622e+00
   26	1	3	-2.4172870787239426e-01	 9.0301898434950623e+00	-6.8582065963449779e+00	-5.9598026931539163e+00
   27	1	3	-2.0776194152348736e-02	 7.6855440622920623e+00	-6.5072016366253322e+00	-6.0499024712345388e+00
   28	1	3	-2.8549272035141388e-01	 7.1891661861788503e+00	-5.4311642435149787e+00	-5.3095687237334710e+00
   29	1	2	 2.1498344530230515e-02	 8.3350411762069623e+00	-3.1055804440909114e+00	-3.0379051429795525e+00
   30	1	2	-2.8212826953524731e-02	 5.9739456992535906e+00	-2.9296470157703736e+00	-4.9789888680135919e+00
   31	1	2	-2.8212826953523961e-02	 6.1865019413723061e+00	-1.8735506229513743e+00	-3.6135128785018402e+00
   32	1	4	 4.6819470939257861e-02	 1.0072395828771018e+01	-4.4998542893647642e+00	-3.7589170805256065e+00
   33	1	4	 1.3097015401380252e-01	 1.0934095231794531e+01	-6.3955103142977707e+00	-5.0687037752555248e+00
   34	1	4	 1.4861691390182208e-01	 9.4136773944437699e+00	-7.6990595054836577e+00	-6.5318106812155889e+00
   35	1	4	 9.7424932381895216e-02	 7.0183677886600364e+00	-7.0753029432206658e+00	-6.6921111259424393e+00
   36	1	4	 1.4886842636136891e-01	 6.1315489483006322e+00	-5.1909355470086318e+00	-5.3854622489177473e+00
   37	1	1	 8.6156203661656702e-02	 7.4945225346200477e+00	-1.4268969719573619e+00	-5.2542136501247461e+00
   38	1	1	 1.7916403064736708e-01	 8.1749586946897637e+00	-2.7048172712922458e-01	-4.4620519426063838e+00
   39	1	3	 8.2161706184385296e-03	 8.3161898745997611e+00	-2.0410014304621868e+00	-6.3736367141091348e+00
   40	1	3	-7.8239841599889171e-02	 7.6739607928917186e+00	-2.4002335826321959e+00	-7.5727263936982201e+00
   41	1	3	-1.0814237972180309e-01	 8.3810960550555311e+00	-2.9965645101606384e+00	-8.6183957453433795e+00
   42	1	3	-2.4172870787239426e-01	 9.7416189367326673e+00	-3.2520502641524973e+00	-8.4803605516154814e+00
   43	1	3	-2.0776194152348736e-02	 1.0393865028265493e+01	-2.9042318445702362e+00	-7.3008976553688854e+00
   44	1	3	-2.8549272035141388e-01	 9.6877435206207707e+00	-2.2994746715947225e+00	-6.2572471970198835e+00
   45	1	2	 2.1498344530230515e-02	 6.6816362602548312e+00	-9.2668685351850266e-01	-5.7918863601864148e+00
   46	1	2	-2.8212826953524731e-02	 7.7782286495812132e+00	-2.4258225905119968e-01	-3.4394764312593167e+00
   47	1	2	-2.8212826953523961e-02	 9.2446442686639898e+00	-4.7003546784806005e-01	-4.3527614842989664e+00
   48	1	4	 4.6819470939257861e-02	 6.6071743734284958e+00	-2.2267196134316731e+00	-7.6971653888425502e+00
   49	1	4	 1.3097015401380252e-01	 7.8662908053922651e+00	-3.2720413195547078e+00	-9.5345223314956815e+00
   50	1	4	 1.4861691390182208e-01	 1.0290860502211386e+01	-3.7328124444176245e+00	-9.2845869224281827e+00
   51	1	4	 9.7424932381895216e-02	 1.1451728617659299e+01	-3.1214452168442564e+00	-7.1815864119199508e+00
   52	1	4	 1.4886842636136891e-01	 1.0224989896910813e+01	-2.0742476637355076e+00	-5.3409520776168780e+00
   53	1	1	 8.6156203661656702e-02	 7.9460049135422866e+00	 1.1441569619190020e+00	-5.1217397420708908e+00
   54	1	1	 1.7916403064736708e-01	 6.6961794973748567e+00	 1.8532988687757657e+00	-4.5141206566409124e+00
   55	1	3	 8.2161706184385296e-03	 9.1477972709803321e+00	 2.0598608627177111e+00	-4.9266593499124838e+00
   56	1	3	-7.8239841599889171e-02	 9.5673275083615064e+00	 2.8926868305588140e+00	-5.9740287104797618e+00
   57	1	3	-1.0814237972180309e-01	 1.0594226430604953e+01	 3.8176827833662035e+00	-5.7771144025453633e+00
   58	1	3	-2.4172870787239426e-01	 1.1219915808479534e+01	 3.9159008870469147e+00	-4.5358016105006911e+00
   59	1	3	-2.0776194152348736e-02	 1.0822509180365664e+01	 3.0877049722299006e+00	-3.4894549050305308e+00
   60	1	3	-2.8549272035141388e-01	 9.7918968957746095e+00	 2.1676952387546597e+00	-3.6817926552548399e+00
   61	1	2	 2.1498344530230515e-02	 7.7946040325572223e+00	 9.9444650390210043e-01	-6.1983832200470514e+00
   62	1	2	-2.8212826953524731e-02	 6.0082337740630951e+00	 1.0869403582938455e+00	-4.2041374318269824e+00
   63	1	2	-2.8212826953523961e-02	 6.9791267213021140e+00	 2.3146411570951999e+00	-3.5612259806207356e+00
   64	1	4	 4.6819470939257861e-02	 9.0768583717763942e+00	 2.8482178300237591e+00	-6.9441180807271534e+00
   65	1	4	 1.3097015401380252e-01	 1.0896007404038141e+01	 4.4720099423335107e+00	-6.5907276452977195e+00
   66	1	4	 1.4861691390182208e-01	 1.2012634532736890e+01	 4.6430452670147986e+00	-4.3827161994848360e+00
   67	1	4	 9.7424932381895216e-02	 1.1302992723275173e+01	 3.1670090686922752e+00	-2.5180357751943383e+00
   68	1	4	 1.4886842636136891e-01	 9.4754373210485863e+00	 1.5555026388044100e+00	-2.8402116027070949e+00
   69	1	1	 8.6156203661656702e-02	 5.9335042853674036e+00	 2.8713674337305131e+00	-5.4220347195435368e+00
   70	1	1	 1.7916403064736708e-01	 4.5153442304183375e+00	 2.3754526921052177e+00	-5.8927221177791820e+00
   71	1	3	 8.2161706184385296e-03	 5.8163156959882887e+00	 4.2797297542132622e+00	-4.7696561385914906e+00
   72	1	3	-7.8239841599889171e-02	 4.6575137723290245e+00	 5.0767120849850809e+00	-4.8757102550742362e+00
   73	1	3	-1.0814237972180309e-01	 4.5548351142254599e+00	 6.3237578598474702e+00	-4.2469813431865342e+00
   74	1	3	-2.4172870787239426e-01	 5.6183897735499739e+00	 6.8219355968206639e+00	-3.5080021219802857e+00
   75	1	3	-2.0776194152348736e-02	 6.7915703968009327e+00	 6.0833609933116861e+00	-3.4236340149090863e+00
   76	1	3	-2.8549272035141388e-01	 6.8919981631721603e+00	 4.8399663161877129e+00	-4.0600166402034947e+00
   77	1	2	 2.1498344530230515e-02	 6.5228560878620883e+00	 3.0259394516284992e+00	-6.3354899461605179e+00
   78	1	2	-2.8212826953524731e-02	 3.7606665378704860e+00	 2.5799197915497487e+00	-5.1274418407356110e+00
   79	1	2	-2.8212826953523961e-02	 4.2612858695977565e+00	 3.0419146244328799e+00	-6.7315711670425724e+00
   80	1	4	 4.6819470939257861e-02	 3.7871928708120453e+00	 4.7536281353536580e+00	-5.4398469650552164e+00
   81	1	4	 1.3097015401380252e-01	 3.6349936538137539e+00	 6.8967475299256353e+00	-4.3338482703626315e+00
   82	1	4	 1.4861691390182208e-01	 5.5375565744018367e+00	 7.7844748806065169e+00	-3.0116783016551811e+00
   83	1	4	 9.7424932381895216e-02	 7.6388482606509145e+00	 6.4707518484051239e+00	-2.8639290363778400e+00
   84	1	4	 1.4886842636136891e-01	 7.8388421904041525e+00	 4.3173555799161285e+00	-3.9767364380189791e+00
   85	1	1	 8.6156203661656702e-02	 4.2958353783781629e+00	 9.3283411407646177e-01	-6.3937491449535715e+00
   86	1	1	 1.7916403064736708e-01	 4.1034360330567345e+00	-1.7139881749462127e-01	-5.3150438704230503e+00
   87	1	3	 8.2161706184385296e-03	 3.1339026994213679e+00	 8.4623527933074172e-01	-7.3964919177651209e+00
   88	1	3	-7.8239841599889171e-02	 3.1877347989252831e+00	-1.0551969283959028e-01	-8.4285730329902435e+00
   89	1	3	-1.0814237972180309e-01	 2.1269389844305033e+00	-2.5300252501288067e-01	-9.3263217377836192e+00
   90	1	3	-2.4172870787239426e-01	 9.9381237513623599e-01	 5.4751951590195613e-01	-9.2084510098230492e+00
   91	1	3	-2.0776194152348736e-02	 9.2253021915540412e-01	 1.4989228881900720e+00	-8.1955138140737080e+00
   92	1	3	-2.8549272035141388e-01	 1.9837387876690453e+00	 1.6480708118004932e+00	-7.2981655073354261e+00
   93	1	2	 2.1498344530230515e-02	 5.2014725686789891e+00	 6.7606055574570245e-01	-6.9610906075649499e+00
   94	1	2	-2.8212826953524731e-02	 4.0319630908294624e+00	-1.1173890383177874e+00	-5.8742628555133374e+00
   95	1	2	-2.8212826953523961e-02	 5.0105020959938535e+00	-3.1561563431890960e-01	-4.7469978534519095e+00
   96	1	4	 4.6819470939257861e-02	 4.0545647815188808e+00	-7.5452266801399048e-01	-8.5308353619462380e+00
   97	1	4	 1.3097015401380252e-01	 2.1818263408817007e+00	-1.0018279078428400e+00	-1.0111986090734808e+01
   98	1	4	 1.4861691390182208e-01	 1.6373074688845701e-01	 4.2500345128947892e-01	-9.8989921294415844e+00
   99	1	4	 9.7424932381895216e-02	 3.2729933561369329e-02	 2.1152608468978498e+00	-8.0915679379108525e+00
  100	1	4	 1.4886842636136891e-01	 1.8828163785839136e+00	 2.3869723428828564e+00	-6.5081215427877863e+00
  101	1	1	 8.6156203661656702e-02	 2.9402501264313177e+00	-7.4043581987214502e-02	-4.2889671960292954e+00
  102	1	1	 1.7916403064736708e-01	 3.4145346193944111e+00	 1.5258054091338469e-01	-2.8011075092321671e+00
  103	1	3	 8.2161706184385296e-03	 2.1742151613464076e+00	-1.4079149275727603e+00	-4.4335381404167622e+00
  104	1	3	-7.8239841599889171e-02	 1.1748427844895648e+00	-1.5311480054854201e+00	-5.4145136079228005e+00
  105	1	3	-1.0814237972180309e-01	 4.9027564580823579e-01	-2.7326458585419977e+00	-5.6123065594896211e+00
  106	1	3	-2.4172870787239426e-01	 8.0737011773395917e-01	-3.8469822608932027e+00	-4.8454020703387730e+00
  107	1	3	-2.0776194152348736e-02	 1.8188773824137119e+00	-3.7600771679971245e+00	-3.8945009234205790e+00
  108	1	3	-2.8549272035141388e-01	 2.5034095044946785e+00	-2.5560676333839121e+00	-3.6966739900678012e+00
  109	1	2	 2.1498344530230515e-02	 2.2627554388042457e+00	 7.4404328443777779e-01	-4.5482116323544632e+00
  110	1	2	-2.8212826953524731e-02	 2.6102389845747336e+00	-1.4248933289478938e-01	-2.1238277029608281e+00
  111	1	2	-2.8212826953523961e-02	 4.2271593637472442e+00	-5.6188494510268150e-01	-2.6157862849668847e+00
  112	1	4	 4.6819470939257861e-02	 9.0878583535536617e-01	-6.8245790300457632e-01	-6.0393385615797719e+00
  113	1	4	 1.3097015401380252e-01	-2.8870323319940461e-01	-2.7903125600458725e+00	-6.3679819218782177e+00
  114	1	4	 1.4861691390182208e-01	 2.7307430423671164e-01	-4.7809949837859973e+00	-4.9920417380387798e+00
  115	1	4	 9.7424932381895216e-02	 2.0733539004727346e+00	-4.6299279225343950e+00	-3.2960425472680712e+00
  116	1	4	 1.4886842636136891e-01	 3.2966343535111733e+00	-2.5415217084628319e+00	-2.9549522117586773e+00
  117	1	1	 8.6156203661656702e-02	 3.9180811163064644e+00	 1.5729866685449867e+00	-2.3724658881664986e+00
  118	1	1	 1.7916403064736708e-01	 5.1478709348974041e+00	 1.4635088659966922e+00	-1.4195872054668506e+00
  119	1	3	 8.2161706184385296e-03	 2.9154492462695494e+00	 2.6312403878922703e+00	-1.9361325715868185e+00
  120	1	3	-7.8239841599889171e-02	 3.3600249104698818e+00	 3.9298912114046871e+00	-1.6253224994058320e+00
  121	1	3	-1.0814237972180309e-01	 2.4683385545953120e+00	 4.9526736438597965e+00	-1.2890694650437720e+00
  122	1	3	-2.4172870787239426e-01	 1.1017815042922763e+00	 4.7088175308863285e+00	-1.2832650978504838e+00
  123	1	3	-2.0776194152348736e-02	 6.3711039931249758e-01	 3.4400727404391986e+00	-1.6037561776329485e+00
  124	1	3	-2.8549272035141388e-01	 1.5391905018707694e+00	 2.4143656827710060e+00	-1.9151108075743566e+00
  125	1	2	 2.1498344530230515e-02	 4.3275826768722467e+00	 2.0081783351297231e+00	-3.2782397277015920e+00
  126	1	2	-2.8212826953524731e-02	 5.6183625690564973e+00	 2.4367178047069338e+00	-1.2587919432970367e+00
  127	1	2	-2.8212826953523961e-02	 5.8781884468558410e+00	 9.1693752670577933e-01	-2.0266522381722791e+00
  128	1	4	 4.6819470939257861e-02	 4.4184698718556419e+00	 4.1797330799406467e+00	-1.6695734911863633e+00
  129	1	4	 1.3097015401380252e-01	 2.8491702947967292e+00	 5.9427584359953105e+00	-1.0535503286199144e+00
  130	1	4	 1.4861691390182208e-01	 4.0287958602953378e-01	 5.5024456584680923e+00	-1.0361539352688591e+00
  131	1	4	 9.7424932381895216e-02	-4.3112225821997185e-01	 3.2367513995046195e+00	-1.6083561683764562e+00
  132	1	4	 1.4886842636136891e-01	 1.1335484735685384e+00	 1.4387160712590212e+00	-2.1400413656301946e+00
  133	1	1	 8.6156203661656702e-02	 4.9917291729472595e+00	 7.0375456384475488e-01	-7.8676284873677726e-02
  134	1	1	 1.7916403064736708e-01	 4.6993739688587910e+00	 1.5635372968284509e+00	 1.1983368001632808e+00
  135	1	3	 8.2161706184385296e-03	 6.1437589676979307e+00	-2.8299316829904164e-01	 1.0887009789087976e-01
  136	1	3	-7.8239841599889171e-02	 5.8950394989409567e+00	-1.5334415765884382e+00	 6.7786664049812451e-01
  137	1	3	-1.0814237972180309e-01	 6.9364768784416304e+00	-2.4450075321074443e+00	 8.6791439650526325e-01
  138	1	3	-2.4172870787239426e-01	 8.2380227862547741e+00	-2.1198427800030344e+00	 4.9791386401292581e-01
  139	1	3	-2.0776194152348736e-02	 8.5011922392516563e+00	-8.9102095244711421e-01	-9.2848564596151872e-02
  140	1	3	-2.8549272035141388e-01	 7.4636543977733272e+00	 1.5984576833149688e-02	-2.8473803630505290e-01
  141	1	2	 2.1498344530230515e-02	 4.0985741103771991e+00	 7.4492714932768322e-02	-1.9250300010324972e-01
  142	1	2	-2.8212826953524731e-02	 3.7017820334814884e+00	 1.9818995984364278e+00	 1.0301819099345346e+00
  143	1	2	-2.8212826953523961e-02	 4.6026769949742068e+00	 8.9693333128426200e-01	 2.0638480158158750e+00
  144	1	4	 4.6819470939257861e-02	 4.8890861802992429e+00	-1.8099091656224715e+00	 9.8573762813400789e-01
  145	1	4	 1.3097015401380252e-01	 6.7266227258749423e+00	-3.4111746757934971e+00	 1.3203307884914057e+00
  146	1	4	 1.4861691390182208e-01	 9.0513129194763842e+00	-2.8177733008631987e+00	 6.7608490125616105e-01
  147	1	4	 9.7424932381895216e-02	 9.5152048811012016e+00	-6.2351271986848378e-01	-3.7659293211327316e-01
  148	1	4	 1.4886842636136891e-01	 7.7076585780631675e+00	 9.8728431014987894e-01	-7.1043948431126758e-01
  149	1	1	 8.6156203661656702e-02	 5.6126550704047462e+00	 2.7683916554905403e+00	 1.5826030026979327e+00
  150	1	1	 1.7916403064736708e-01	 4.9265908079281040e+00	 3.7411249554085568e+00	 2.6121304996368035e+00
  151	1	3	 8.2161706184385296e-03	 7.0590696806039848e+00	 2.4435111523878579e+00	 1.8756361670759842e+00
  152	1	3	-7.8239841599889171e-02	 8.0697272308954879e+00	 3.2566878148098102e+00	 1.3322071183031063e+00
  153	1	3	-1.0814237972180309e-01	 9.4185677081061652e+00	 2.9723179981019863e+00	 1.5546772222007066e+00
  154	1	3	-2.4172870787239426e-01	 9.7797378791547995e+00	 1.8743098652121937e+00	 2.3303372023904938e+00
  155	1	3	-2.0776194152348736e-02	 8.7916521754299772e+00	 1.0664004807159566e+00	 2.8883119581039742e+00
  156	1	3	-2.8549272035141388e-01	 7.4402777030698468e+00	 1.3504984946071090e+00	 2.6665021484058689e+00
  157	1	2	 2.1498344530230515e-02	 5.6297720160119464e+00	 3.3635743909208706e+00	 6.5874454140111849e-01
  158	1	2	-2.8212826953524731e-02	 5.0743065508495810e+00	 4.7482966564274012e+00	 2.1933719807037111e+00
  159	1	2	-2.8212826953523961e-02	 3.8411046140584877e+00	 3.5931042958062065e+00	 2.5471164121007059e+00
  160	1	4	 4.6819470939257861e-02	 7.8092958430619115e+00	 4.1259224052952774e+00	 7.3250617815466812e-01
  161	1	4	 1.3097015401380252e-01	 1.0183620706218743e+01	 3.6169455242674982e+00	 1.1321638618535204e+00
  162	1	4	 1.4861691390182208e-01	 1.0827826571010869e+01	 1.6548781600837952e+00	 2.5098345874568770e+00
  163	1	4	 9.7424932381895216e-02	 9.0670248513175693e+00	 2.1122177559330435e-01	 3.4979328657249624e+00
  164	1	4	 1.4886842636136891e-01	 6.6935613020291695e+00	 6.9739221055676470e-01	 3.1099670142829243e+00
  165	1	1	 8.6156203661656702e-02	 5.2841802431993781e+00	 3.8543931498712887e+00	 4.1392463956201624e+00
  166	1	1	 1.7916403064736708e-01	 4.7400997234982025e+00	 2.6643719744107974e+00	 4.9893008003079240e+00
  167	1	3	 8.2161706184385296e-03	 6.6704215420734130e+00	 4.4351212473855579e+00	 4.3864311334568784e+00
  168	1	3	-7.8239841599889171e-02	 6.8948302652466413e+00	 5.7924589980331458e+00	 4.0819107261584984e+00
  169	1	3	-1.0814237972180309e-01	 8.1371948370378657e+00	 6.3939211086095398e+00	 4.2962574160436446e+00
  170	1	3	-2.4172870787239426e-01	 9.1852505257586206e+00	 5.6500490901853375e+00	 4.8252699198142714e+00
  171	1	3	-2.0776194152348736e-02	 8.9863791903189867e+00	 4.3090876144599406e+00	 5.1360306011937347e+00
  172	1	3	-2.8549272035141388e-01	 7.7413695467382402e+00	 3.7100517061405398e+00	 4.9161108756711416e+00
  173	1	2	 2.1498344530230515e-02	 4.6270616906603754e+00	 4.6750485701530557e+00	 4.4691590683978708e+00
  174	1	2	-2.8212826953524731e-02	 3.6477913577891670e+00	 2.7126273953316167e+00	 4.9259086902404947e+00
  175	1	2	-2.8212826953523961e-02	 5.0143512544154287e+00	 1.7257724798893808e+00	 4.4915638488358169e+00
  176	1	4	 4.6819470939257861e-02	 6.0878522565611499e+00	 6.3999598909308393e+00	 3.6783228192370858e+00
  177	1	4	 1.3097015401380252e-01	 8.2808992467348652e+00	 7.4427623393805451e+00	 4.0539499683910529e+00
  178	1	4	 1.4861691390182208e-01	 1.0153166887152285e+01	 6.1115014461892034e+00	 4.9947206766927454e+00
  179	1	4	 9.7424932381895216e-02	 9.8017715213750218e+00	 3.7171309289469523e+00	 5.5411664944913266e+00
  180	1	4	 1.4886842636136891e-01	 7.6385990295484660e+00	 2.6565515239427286e+00	 5.1493895669457226e+00
  181	1	1	 8.6156203661656702e-02	 5.1075099883520654e+00	 2.5111959022154702e+00	 6.5045714266252732e+00
  182	1	1	 1.7916403064736708e-01	 4.2352280647650469e+00	 1.4321281268178456e+00	 7.2256691320349331e+00
  183	1	3	 8.2161706184385296e-03	 5.3469412594996077e+00	 3.7492538342726771e+00	 7.3367785663372080e+00
  184	1	3	-7.8239841599889171e-02	 6.4236086598179085e+00	 3.7524380470822454e+00	 8.2445720058492586e+00
  185	1	3	-1.0814237972180309e-01	 6.7085490657351778e+00	 4.8736378833186489e+00	 9.0222121705730647e+00
  186	1	3	-2.4172870787239426e-01	 5.9175502734097467e+00	 6.0111173707214078e+00	 8.9073968097991933e+00
  187	1	3	-2.0776194152348736e-02	 4.8381875767308848e+00	 6.0200414171637711e+00	 8.0251392329030224e+00
  188	1	3	-2.8549272035141388e-01	 4.5480823532721315e+00	 4.8932402719743546e+00	 7.2499807275320771e+00
  189	1	2	 2.1498344530230515e-02	 6.0884190720799873e+00	 2.0173768582271290e+00	 6.4471717668238648e+00
  190	1	2	-2.8212826953524731e-02	 4.9086044770870547e+00	 8.8205927330068512e-01	 7.8964498070770430e+00
  191	1	2	-2.8212826953523961e-02	 3.9526176927550818e+00	 7.0801074113618867e-01	 6.4525960741528996e+00
  192	1	4	 4.6819470939257861e-02	 7.0572733392797851e+00	 2.8735545902900403e+00	 8.3437242388919710e+00
  193	1	4	 1.3097015401380252e-01	 7.5476692810676189e+00	 4.8556724417379069e+00	 9.7111579339973719e+00
  194	1	4	 1.4861691390182208e-01	 6.1385496603522487e+00	 6.8868615768947432e+00	 9.5096936157262792e+00
  195	1	4	 9.7424932381895216e-02	 4.2177313879326164e+00	 6.9069195913128318e+00	 7.9428026523515376e+00
  196	1	4	 1.4886842636136891e-01	 3.6930349409928223e+00	 4.9196956929951323e+00	 6.5818305512251305e+00
  197	1	1	 8.6156203661656702e-02	 2.9334731575557953e+00	 1.7835748276023908e+00	 8.0378815289272776e+00
  198	1	1	 1.7916403064736708e-01	 2.1562852634318919e+00	 4.3932318034520534e-01	 8.2556530327677446e+00
  199	1	3	 8.2161706184385296e-03	 3.1826456611592278e+00	 2.4744675281532453e+00	 9.3673471491863616e+00
  200	1	3	-7.8239841599889171e-02	 2.4582579025002493e+00	 3.6356524225502120e+00	 9.6830462037664340e+00
  201	1	3	-1.0814237972180309e-01	 2.6259484995805584e+00	 4.2751656401329292e+00	 1.0910988864982160e+01
  202	1	3	-2.4172870787239426e-01	 3.5163812085275312e+00	 3.7592091715689175e+00	 1.1847554765485143e+01
  203	1	3	-2.0776194152348736e-02	 4.2356735054168482e+00	 2.6022712811300321e+00	 1.1556161361177166e+01
  204	1	3	-2.8549272035141388e-01	 4.0678745804742871e+00	 1.9609129126681886e+00	 1.0326605515540541e+01
  205	1	2	 2.1498344530230515e-02	 2.3291564379763745e+00	 2.4405177008099255e+00	 7.4025717495533980e+00
  206	1	2	-2.8212826953524731e-02	 1.7510977173759370e+00	 1.5083560762525927e-01	 7.2921004069987658e+00
  207	1	2	-2.8212826953523961e-02	 2.9281797706928794e+00	-2.9217841565314551e-01	 8.5256584313509478e+00
  208	1	4	 4.6819470939257861e-02	 1.7514459489140775e+00	 4.0527275407281333e+00	 8.9699465429419956e+00
  209	1	4	 1.3097015401380252e-01	 2.0595107489439703e+00	 5.1745189897533272e+00	 1.1132597825339882e+01
  210	1	4	 1.4861691390182208e-01	 3.6475574522079555e+00	 4.2578013003675164e+00	 1.2804185159386707e+01
  211	1	4	 9.7424932381895216e-02	 4.9286063471443837e+00	 2.1978325931973419e+00	 1.2287989359010581e+01
  212	1	4	 1.4886842636136891e-01	 4.6318723279691110e+00	 1.0540330135149043e+00	 1.0131577952806516e+01
  213	1	1	 8.6156203661656702e-02	 1.0233737520080597e+00	 2.6658181612008658e-01	 9.3025704922247066e+00
  214	1	1	 1.7916403064736708e-01	 6.0872190053005060e-01	-1.2543835461694561e+00	 9.5912112909682268e+00
  215	1	3	 8.2161706184385296e-03	-1.2729498800924155e-01	 1.2596056226145169e+00	 9.2925787312387360e+00
  216	1	3	-7.8239841599889171e-02	-8.6008900721622439e-01	 1.4643372331330848e+00	 1.0476569258982412e+01
  217	1	3	-1.0814237972180309e-01	-1.9441326560319325e+00	 2.3444155099067565e+00	 1.0517847062494107e+01
  218	1	3	-2.4172870787239426e-01	-2.3105844732125949e+00	 3.0493983908813878e+00	 9.3770236418463924e+00
  219	1	3	-2.0776194152348736e-02	-1.5867755330189350e+00	 2.8803192359460574e+00	 8.2008427279565836e+00
  220	1	3	-2.8549272035141388e-01	-5.0573179815627789e-01	 1.9936834799694161e+00	 8.1633474597129858e+00
  221	1	2	 2.1498344530230515e-02	 1.5395858638270337e+00	 5.2573302053513693e-01	 1.0243292329763218e+01
  222	1	2	-2.8212826953524731e-02	 1.1721193434120103e-01	-1.2688281597884972e+00	 1.0573477408667031e+01
  223	1	2	-2.8212826953523961e-02	 1.5713310975162695e+00	-1.6865680480074188e+00	 9.9110861508893215e+00
  224	1	4	 4.6819470939257861e-02	-5.8867510004905199e-01	 9.2575685690757048e-01	 1.1383833360208328e+01
  225	1	4	 1.3097015401380252e-01	-2.4986140295222565e+00	 2.4757271049177021e+00	 1.1443597770944352e+01
  226	1	4	 1.4861691390182208e-01	-3.1512144622151421e+00	 3.7346698575248922e+00	 9.4067974844255176e+00
  227	1	4	 9.7424932381895216e-02	-1.8704402070524235e+00	 3.4274724348037378e+00	 7.3042939563481566e+00
  228	1	4	 1.4886842636136891e-01	 1.0169981386717097e-02	 1.8616979604229718e+00	 7.2247937211534827e+00
  229	1	1	 8.6156203661656702e-02	-3.1519695003319192e-02	-2.6211408909493290e+00	 8.4594454295647896e+00
  230	1	1	 1.7916403064736708e-01	 1.5102191770189348e+00	-2.6111993186386200e+00	 7.4826836558481284e+00
  231	1	3	 8.2161706184385296e-03	-2.0430400936553692e+00	-3.2770694638298496e+00	 7.9907405293392317e+00
  232	1	3	-7.8239841599889171e-02	-2.5843898097428539e+00	-4.6379251468628242e+00	 7.4590097826661976e+00
  233	1	3	-1.0814237972180309e-01	-3.9135473029812733e+00	-5.0717118802430328e+00	 7.1957062033522599e+00
  234	1	3	-2.4172870787239426e-01	-4.9854366861125783e+00	-4.2401314376908834e+00	 7.3784922576004126e+00
  235	1	3	-2.0776194152348736e-02	-4.7359872530072362e+00	-2.9733849322108177e+00	 7.8533047627206978e+00
  236	1	3	-2.8549272035141388e-01	-3.4089067910071709e+00	-2.5375194495581042e+00	 8.1410220082455016e+00
  237	1	2	 2.1498344530230515e-02	 5.3988389624613831e-01	-3.2765215200831541e+00	 9.1788822360113631e+00
  238	1	2	-2.8212826953524731e-02	 1.3184439187898409e+00	-1.9600071895548155e+00	 6.6483794241226306e+00
  239	1	2	-2.8212826953523961e-02	 2.2209122596508166e+00	-2.0540151228867694e+00	 8.0777692843709943e+00
  240	1	4	 4.6819470939257861e-02	-1.9332161509198027e+00	-5.4736351214927588e+00	 7.1592784314784206e+00
  241	1	4	 1.3097015401380252e-01	-4.0740193457589395e+00	-6.0823189423330213e+00	 6.8071433223347526e+00
  242	1	4	 1.4861691390182208e-01	-5.9988314583338944e+00	-4.5695801709315029e+00	 7.1676169267303420e+00
  243	1	4	 9.7424932381895216e-02	-5.5653072180517160e+00	-2.2835957237040607e+00	 8.0218548333436157e+00
  244	1	4	 1.4886842636136891e-01	-3.5109515945800656e+00	-1.5243890056416021e+00	 8.5411050473222119e+00
  245	1	1	 8.6156203661656702e-02	 2.3656484672064506e+00	-3.8503870723518272e+00	 6.9954729936040891e+00
  246	1	1	 1.7916403064736708e-01	 2.9946689846348029e+00	-3.5287733502085987e+00	 5.5816797569336893e+00
  247	1	3	 8.2161706184385296e-03	 3.4061978707318419e+00	-4.4479313411433790e+00	 7.9438515850874269e+00
  248	1	3	-7.8239841599889171e-02	 4.0362907227417715e+00	-5.6527913857255347e+00	 7.5623934435108291e+00
  249	1	3	-1.0814237972180309e-01	 4.9979460955729680e+00	-6.2677121554383923e+00	 8.3666262843830079e+00
  250	1	3	-2.4172870787239426e-01	 5.3393037971648694e+00	-5.7008117455457539e+00	 9.5864405480808674e+00
  251	1	3	-2.0776194152348736e-02	 4.7190277087971690e+00	-4.5237985741556672e+00	 9.9944276022073506e+00
  252	1	3	-2.8549272035141388e-01	 3.7591184697542479e+00	-3.9056310088321275e+00	 9.1832402614092459e+00
  253	1	2	 2.1498344530230515e-02	 1.7230623962829723e+00	-4.7141351167809731e+00	 6.8114820475864084e+00
  254	1	2	-2.8212826953524731e-02	 2.2073876255896607e+00	-3.7184612516900968e+00	 4.8462916363616300e+00
  255	1	2	-2.8212826953523961e-02	 3.7678023988295659e+00	-4.2615870192243817e+00	 5.3198881030822118e+00
  256	1	4	 4.6819470939257861e-02	 3.7783932743955431e+00	-6.1299521378066757e+00	 6.6172498893230269e+00
  257	1	4	 1.3097015401380252e-01	 5.4719848499004806e+00	-7.1885678358579739e+00	 8.0366898187130325e+00
  258	1	4	 1.4861691390182208e-01	 6.0863978269846477e+00	-6.1732682247541977e+00	 1.0216309613394936e+01
  259	1	4	 9.7424932381895216e-02	 4.9782985727208198e+00	-4.0823297582575560e+00	 1.0953212358990674e+01
  260	1	4	 1.4886842636136891e-01	 3.3072224386272211e+00	-2.9957580867902447e+00	 9.5578416495884877e+00
  261	1	1	 8.6156203661656702e-02	 3.5386000634171824e+00	-2.0908621544199231e+00	 5.3676235208328515e+00
  262	1	1	 1.7916403064736708e-01	 2.9132648740154341e+00	-1.3854781762411292e+00	 4.1076155630374966e+00
  263	1	3	 8.2161706184385296e-03	 5.0601627379057348e+00	-2.0826834680181241e+00	 5.4360444358993583e+00
  264	1	3	-7.8239841599889171e-02	 5.6901304381828561e+00	-1.8566937860529267e+00	 6.6735639435800911e+00
  265	1	3	-1.0814237972180309e-01	 7.0801205858807341e+00	-1.8251714714679355e+00	 6.7859461366569205e+00
  266	1	3	-2.4172870787239426e-01	 7.8663567604756022e+00	-2.0312130301732108e+00	 5.6598239172586391e+00
  267	1	3	-2.0776194152348736e-02	 7.2589108158027704e+00	-2.2805030934878201e+00	 4.4316531272980697e+00