units real
atom_style full
boundary p p p

pair_style lj/charmm/coul/long 12.0 16.0
kspace_style pppm 1e-6
dielectric 1.000000
bond_style harmonic
angle_style harmonic
dihedral_style fourier
improper_style cvff
special_bonds amber
pair_modify mix arithmetic
neighbor 2.0 bin
neigh_modify delay 0 every 1 check yes
read_data /home/weilin/radonpy_file/radonpy_org/RadonPy-develop/PolySolSimulator_pre/md1/poly30_acetone/sampling_md/equilibrated_mix_cell_ini.data
Reading data file ...
  orthogonal box = (-83.100741 -83.100741 -83.100741) to (83.100741 83.100741 83.100741)
  2 by 3 by 5 MPI processor grid
  reading atoms ...
  10248 atoms
  reading velocities ...
  10248 velocities
  scanning bonds ...
  4 = max bonds/atom
  scanning angles ...
  6 = max angles/atom
  scanning dihedrals ...
  15 = max dihedrals/atom
  scanning impropers ...
  1 = max impropers/atom
  reading bonds ...
  9301 bonds
  reading angles ...
  912 angles
  reading dihedrals ...
  1449 dihedrals
  reading impropers ...
  150 impropers
Finding 1-2 1-3 1-4 neighbors ...
  special bond factors lj:    0        0        0.5     
  special bond factors coul:  0        0        0.8333333333333334
     4 = max # of 1-2 neighbors
     8 = max # of 1-3 neighbors
    18 = max # of 1-4 neighbors
    22 = max # of special neighbors
  special bonds CPU = 0.003 seconds
  read_data CPU = 0.035 seconds

thermo_style custom step time temp press enthalpy etotal ke pe ebond eangle edihed eimp evdwl ecoul elong etail vol lx ly lz density pxx pyy pzz pxy pxz pyz
thermo_modify flush yes
thermo 1000

dump dump0 all custom 1000 sampling.dump id type mol x y z ix iy iz vx vy vz
dump xtc0 all xtc 1000 sampling.xtc
dump_modify xtc0 unwrap yes
restart 10000 radon_md_1.rst radon_md_2.rst

timestep 0.005000
compute cmol1 all chunk/atom molecule nchunk once limit 0 ids once compress no

# rg
compute gyr1 all gyration/chunk cmol1
fix rg1 all ave/time 1 1000 1000 c_gyr1 file rg.profile mode vector
fix shake1 all shake 1e-4 1000 0 m 1.0
     180 = # of size 2 clusters
      30 = # of size 3 clusters
    1954 = # of size 4 clusters
       0 = # of frozen angles
  find clusters CPU = 0.002 seconds

# npt
fix md1 all npt temp 300.000000 300.000000 100.000000 iso 1.000000 1.000000 500.000000 nreset 1000

run 500000
PPPM initialization ...
WARNING: System is not charge neutral, net charge = 2.3078745 (src/kspace.cpp:325)
  using 12-bit tables for long-range coulomb (src/kspace.cpp:340)
  G vector (1/distance) = 0.17982144
  grid = 72 72 72
  stencil order = 5
  estimated absolute RMS force accuracy = 0.00042057133
  estimated relative force accuracy = 1.2665381e-06
  using double precision MKL FFT
  3d grid and FFT values/proc = 24969 15552
Neighbor list info ...
  update every 1 steps, delay 0 steps, check yes
  max neighbors/atom: 2000, page size: 100000
  master list distance cutoff = 18
  ghost atom cutoff = 18
  binsize = 9, bins = 19 19 19
  1 neighbor lists, perpetual/occasional/extra = 1 0 0
  (1) pair lj/charmm/coul/long, perpetual
      attributes: half, newton on
      pair build: half/bin/newton
      stencil: half/bin/3d
      bin: standard
Per MPI rank memory allocation (min/avg/max) = 19.44 | 19.70 | 21.24 Mbytes
Step Time Temp Press Enthalpy TotEng KinEng PotEng E_bond E_angle E_dihed E_impro E_vdwl E_coul E_long E_tail Volume Lx Ly Lz Density Pxx Pyy Pzz Pxy Pxz Pyz 
       0            0    375.76528    891.58976   -12506.537   -72202.594    9199.2575   -81401.852    1960.3672    192.54117    160.46763    1.1609393    5403.7378   -37845.217    -51274.91            0    4590972.4    166.20148    166.20148    166.20148  0.021644179    903.19651    2065.8748   -294.30197     2048.848    2087.9678     1580.721 
    1000            5    362.36044   -1.8760336    -72569.09    -72443.48    8871.0884   -81314.569    1976.7998    181.56425    155.83469     1.028927    5483.8717   -37837.502   -51276.167            0    4591006.9     166.2019     166.2019     166.2019  0.021644016  -0.75208168   -2.7005189   -2.1755001    2.9777362   -17.604258   -1.2344245 
    2000           10    363.73069   -7.1504684   -72935.971   -72457.211    8904.6339   -81361.844    1983.7413    174.08141    157.09135   0.98269903    5386.0437   -37787.348   -51276.436            0    4591001.8    166.20184    166.20184    166.20184   0.02164404   -3.4918737    -8.661316   -9.2982154    6.6351604   -12.555866    1.1174818 
    3000           15    362.67197   -2.1518696    -72624.15   -72480.075    8878.7149    -81358.79    1961.9581    184.06443    152.44919   0.91451986    5346.7782   -37727.269   -51277.685            0    4590888.9    166.20047    166.20047    166.20047  0.021644573   -4.6260078   -10.077251      8.24765    7.1549537   0.53299361    11.301257 
    4000           20    359.44676 -0.0039681919    -72510.77   -72510.505    8799.7573   -81310.262    1962.7217    190.50109    146.78248   0.93455428    5325.0051   -37657.474   -51278.733            0    4590724.1    166.19849    166.19849    166.19849   0.02164535   -6.5517329   -11.554063    18.093891  -0.99682286   0.63074062    15.679017 
    5000           25     355.0255   -6.8826221   -73005.883   -72545.104    8691.5187   -81236.623    1976.9277    192.40084    148.65158    1.0591007    5307.8657   -37584.431   -51279.096            0      4590532    166.19617    166.19617    166.19617  0.021646256   -9.5636263   -14.608725    3.5244855   -7.4856689   -5.6399583   0.34127678 
    6000           30    353.26095   -14.126253   -73525.648   -72579.985    8648.3201   -81228.305    1948.6757    192.61964    146.67941   0.96918374    5274.7031   -37511.437   -51280.516            0    4590220.4    166.19241    166.19241    166.19241  0.021647725   -9.1689444   -11.909335    -21.30048   -6.7882772   -5.5098252   -13.898084 
    7000           35    351.87463   -15.844873   -73673.157   -72612.567    8614.3811   -81226.948    1959.2452    194.16677    145.60436    0.9092717    5202.0179   -37445.319   -51283.572            0    4589688.1    166.18598    166.18598    166.18598  0.021650235   -8.4108387   -8.6016338   -30.522147   -4.7005088    2.8276252   -9.9295891 
    8000           40    350.77938   -14.447759   -73609.172   -72642.263    8587.5679   -81229.831    2000.3486    184.21316    150.33303     1.019964    5124.6352   -37404.482   -51285.899            0    4588905.3    166.17654    166.17654    166.17654  0.021653929   -8.6778426   -8.0722558    -26.59318   -3.4645945    1.2384849    3.8147896 
    9000           45    350.97038   -9.8095602   -73326.405    -72670.05    8592.2438   -81262.294    1940.8746    190.00545    152.60609    1.0471975    5150.5649   -37411.925   -51285.467            0    4587893.8    166.16432    166.16432    166.16432  0.021658703   -2.6787956   -9.3146773   -17.435208  0.087042594   -7.6357495    5.2628229 
   10000           50    347.91495   -6.6963157   -73145.228   -72697.294    8517.4425   -81214.736    1948.3624    178.18299    153.95045   0.97380014     5254.836   -37467.677   -51283.365            0    4586716.9    166.15011    166.15011    166.15011   0.02166426    8.0160417   -17.898198   -10.206791    4.0410591   -6.3400253   -1.9517744 
   11000           55    345.62037   -4.6941421   -73038.665    -72724.75    8461.2682   -81186.018    1993.7798    177.17503    156.49493   0.89778178    5314.1831   -37546.674   -51281.876            0    4585422.4    166.13448    166.13448    166.13448  0.021670376    4.9170329   -21.174411    2.1749518    2.4473836 -0.0029785968   -3.9605293 
   12000           60    347.52165  -0.14814903   -72763.161   -72753.257    8507.8141   -81261.071    1967.8741    188.94968    153.38974   0.81423297    5337.1185   -37627.653   -51281.564            0    4584045.9    166.11786    166.11786    166.11786  0.021676883   -7.0485194   -7.0030353    13.607108    1.6467423   -4.2453119   -1.9201068 
   13000           65    348.98507    4.6651405   -72471.804   -72783.591    8543.6407   -81327.231    1914.9012     197.4555    151.34785   0.95785387    5403.0355    -37713.79   -51281.139            0    4582653.9    166.10104    166.10104    166.10104  0.021683468   -7.0960024    11.761207    9.3302164    6.0736116   -10.899706    -3.155006 
   14000           70    348.79299    3.5961437   -72575.686   -72815.957    8538.9383   -81354.896    1932.5415    180.76498    154.56005     1.176608     5460.854    -37804.23   -51280.563            0    4581308.5    166.08478    166.08478    166.08478  0.021689835    4.5876515    20.900058   -14.699279    8.5903094   -5.7793205   -7.3068555 
   15000           75    347.61593    4.2403735   -72566.714   -72849.948    8510.1222    -81360.07    1968.3925     195.1169     153.1853    1.0340172    5487.0629   -37884.195   -51280.667            0    4580005.8    166.06904    166.06904    166.06904  0.021696005    16.426175    18.802606    -22.50766    7.7619061    7.6991793  -0.75228046 
   16000           80    348.73736    9.7936344   -72231.161   -72885.146    8537.5763   -81422.722    1958.2352    192.92394    152.85192   0.86472791    5491.6479   -37938.482   -51280.764            0    4578760.5    166.05399    166.05399    166.05399  0.021701906    16.771951    16.047231   -3.4382791    5.8225977    12.011769    12.583873 
   17000           85    349.74008    9.5203634    -72285.82   -72921.401    8562.1243   -81483.525    1952.0617    189.54946    156.48054    1.0049947    5464.7674   -37968.134   -51279.256            0      4577640    166.04044    166.04044    166.04044  0.021707218    10.646489    8.0616564    9.8529448    2.8153625  -0.42279056    17.706686 
   18000           90    349.30646    2.3292335   -72803.205   -72958.671    8551.5088    -81510.18    1952.2574    180.22649    156.22172    1.1559229    5470.9434   -37994.298   -51276.687            0    4576639.3    166.02834    166.02834    166.02834  0.021711964    9.2862639  -0.80846863   -1.4900949   -1.3613231   -11.003741    9.7794197 
   19000           95    345.97673   -2.2914815    -73149.23   -72996.316    8469.9924   -81466.308     1959.895    176.82157    156.20541    1.1354501    5541.0606    -38026.11   -51275.317            0      4575663    166.01653    166.01653    166.01653  0.021716597    5.9785109    -2.587408   -10.265547  -0.56456793   -8.8672244    3.2786506 
   20000          100    344.59449   0.38141498   -73008.323   -73033.769     8436.153   -81469.922    1925.9448    193.13935    157.16606    1.0433084    5567.1749   -38038.736   -51275.655            0    4574649.3    166.00427    166.00427    166.00427  0.021721409   0.77094234    3.8152013   -3.4418987    8.8294566   -7.5546634    4.9762216 
   21000          105    344.42093    2.4456101   -72907.964   -73071.091    8431.9041   -81502.995    1940.7922    185.35664    153.74282   0.92479946    5498.5132   -38006.618   -51275.706            0    4573625.4    165.99189    165.99189    165.99189  0.021726272   -1.3826701    9.6839655  -0.96446495    17.539024   -9.1804075    5.6289641 
   22000          110     343.2977    1.9411063   -72978.971   -73108.417    8404.4059   -81512.823    1931.6272     184.9673    150.30615   0.92594472    5435.6418    -37941.85   -51274.442            0    4572622.2    165.97975    165.97975    165.97975  0.021731038    3.0032601      11.4211   -8.6010411    16.457003   -5.6841081   0.96786137 
   23000          115    342.05283   -2.3659826   -73303.464   -73145.718    8373.9298   -81519.647    1921.8401    203.43225    151.32653   0.99086468    5350.0025   -37874.052   -51273.188            0    4571628.8    165.96773    165.96773    165.96773   0.02173576    8.4756944    1.4723345   -17.045977    13.764822     4.413588    1.9604689 
   24000          120    343.21504   -4.2207378   -73464.509   -73183.166    8402.3822   -81585.548    1913.6387    194.55649     149.0081   0.89876432    5258.7307   -37829.685   -51272.696            0    4570590.7    165.95517    165.95517    165.95517  0.021740697    8.0175631   -6.6964742   -13.983302    14.279968     10.34416    9.6715033 
   25000          125    342.10436   -5.3819939   -73579.662       -73221    8375.1912   -81596.191    1944.3497    182.63706    146.02277   0.81015189     5224.425   -37822.327   -51272.109            0    4569476.7    165.94168    165.94168    165.94168  0.021745997   -1.1168463  -0.69456884   -14.334567    11.416712    5.5946922     10.48959 
   26000          130    338.28199   -6.9444506   -73721.397   -73258.733    8281.6143   -81540.347    1950.4547     198.6844    147.46225   0.90755857    5294.8571   -37861.963   -51270.751            0    4568268.8    165.92706    165.92706    165.92706  0.021751747   -14.295363    8.7084768   -15.246466     2.692029   -2.4942046   -3.7830426 
   27000          135    337.96962   -7.3423956    -73785.14   -73296.105     8273.967   -81570.072    1931.3862    185.60332    145.43521   0.94041198    5373.6054   -37937.558   -51269.485            0    4566945.4    165.91104    165.91104    165.91104   0.02175805   -17.179759    5.8637069   -10.711135   -2.2511753   -4.5836116   -15.883183 
   28000          140    337.76407    -1.466282    -73430.95    -73333.32    8268.9348   -81602.255    1923.3809    181.92586    141.22123   0.87199444    5450.0953   -38029.758   -51269.993            0    4565509.1    165.89364    165.89364    165.89364  0.021764895   -4.9538684   -2.7573367    3.3123592    2.5389682   -3.3528593   -9.3760008 
   29000          145    337.29591    5.5585431   -73000.376   -73370.363    8257.4738   -81627.837    1932.1753    182.58321    143.33257   0.94485131    5508.3076   -38122.963   -51272.217            0    4564041.1    165.87586    165.87586    165.87586  0.021771896    6.3091743    1.6393733    8.7270816    4.6391048  -0.25128673    5.9695603 
   30000          150    337.06345    4.9656311   -73076.885   -73407.304    8251.7827   -81659.087    1955.6589     185.3725    146.26368   0.98519823    5528.5444   -38202.234   -51273.677            0    4562634.7    165.85882    165.85882    165.85882  0.021778607    6.5278486    11.229206   -2.8601616   -1.3536365   0.29628519    11.152171 
   31000          155    340.41264   -1.8321231   -73566.559   -73444.684    8333.7756   -81778.459    1924.9829    190.60911    145.21672   0.90861657    5477.1784   -38244.616   -51272.739            0    4561282.6    165.84243    165.84243    165.84243  0.021785063    5.9909834    8.9497473     -20.4371   -8.0342441  -0.96326556    7.3845109 
   32000          160    341.21787   -3.9111271   -73743.069   -73482.974    8353.4889   -81836.463     1927.508     191.6437    144.21242   0.90808808    5424.0814   -38253.853   -51270.963            0    4559899.1    165.82566    165.82566    165.82566  0.021791672     4.217675    5.1643201   -21.115377   -7.4550099   -0.8394928     2.671988 
   33000          165    339.38339   0.83480807   -73466.226   -73521.724    8308.5782   -81830.302    1942.1656    189.76527    144.00698   0.94289769     5419.986   -38256.522   -51270.647            0    4558456.8    165.80818    165.80818    165.80818  0.021798567   -4.5892215    9.2881938   -2.1945481   -1.8967818   -3.4107136  0.018935825 
   34000          170      337.925    1.2660786    -73476.24   -73560.383    8272.8747   -81833.257    1934.9567    195.11159    146.79546   0.94609178    5425.3997    -38265.12   -51271.347            0    4557011.1    165.79065    165.79065    165.79065  0.021805483   -17.390614    8.1256457    13.063204   -1.2565929   -7.7657668   -2.2390172 
   35000          175      338.931   -6.0779965   -74003.013   -73599.201    8297.5029   -81896.704    1907.3352    190.76664    150.91838   0.91117384    5396.1825   -38271.108    -51271.71            0    4555564.5     165.7731     165.7731     165.7731  0.021812407   -17.194687   -9.2312454    8.1919427   -1.4834452   -7.0405727   -8.3554247 
   36000          180    336.23603   -10.888074   -74361.394   -73638.255    8231.5264   -81869.781     1964.017    182.89989    149.35257    0.9058628     5380.365   -38275.304   -51272.018            0    4554021.6    165.75439    165.75439    165.75439  0.021819797    -3.725855   -25.004101   -3.9342654    4.7536957  -0.28485746   -5.8527706 
   37000          185    335.18973   -5.3004491    -74028.79   -73676.888    8205.9116     -81882.8    1952.8225    188.74771    146.10816   0.92766894    5386.7972   -38284.976   -51273.227            0    4552323.7    165.73378    165.73378    165.73378  0.021827935    12.139213   -21.898537   -6.1420226    8.5833516    7.8057699    3.8410025 
   38000          190     336.5017  -0.59575405   -73754.791   -73715.254    8238.0302   -81953.284    1928.1569     181.5471    144.56999   0.87033975    5370.1962   -38304.252   -51274.372            0    4550539.2    165.71212    165.71212    165.71212  0.021836495    20.951741   -14.566523   -8.1724804    7.9559573    8.2084514    7.3765704 
   39000          195    338.93587   -1.9952581   -73886.329   -73753.967    8297.6222   -82051.589    1875.7983    178.96955    144.47735   0.76807271    5361.0135   -38338.241   -51274.374            0    4548731.8    165.69018    165.69018    165.69018  0.021845172    19.424456   -12.350401   -13.059829    6.9173669    5.6276565   -5.4442275 
   40000          200    334.78154   -3.2264624   -74006.995   -73793.043    8195.9184   -81988.961    1913.8403    188.48494    148.94489   0.89865359    5423.1382   -38390.448   -51273.821            0    4546890.6    165.66782    165.66782    165.66782  0.021854018    11.664444   -8.0325302   -13.311301    7.0394372    6.8216532   -22.021377 
   41000          205    332.22715    1.8676979   -73707.631    -73831.43    8133.3833   -81964.813    1946.4291    191.11698    153.03123    1.0979735    5471.8129   -38453.952    -51274.35            0    4545006.9    165.64494    165.64494    165.64494  0.021863075    1.5200137    3.4225862    0.6604939    4.4449836     8.918925   -23.245868 
   42000          210    333.30543    10.694465    -73160.71   -73869.295    8159.7812   -82029.077    1905.7931    188.73101    148.92844   0.96881262    5518.3645   -38516.325   -51275.538            0    4543153.7    165.62243    165.62243    165.62243  0.021871993   -2.6724142    12.988122    21.767687   -4.8474074    3.3328992   -9.5338152 
   43000          215    331.42076    13.470617    -73014.63   -73906.821    8113.6418   -82020.463    1878.9919    196.97147    147.24604   0.83824068    5600.1328   -38569.501   -51275.142            0    4541449.3    165.60171    165.60171    165.60171  0.021880202    1.2350275    9.7536355    29.423187   -10.199404   -7.9848099    2.1951434 
   44000          220    328.97802    6.9242668    -73485.51   -73943.967    8053.8403   -81997.808    1935.6499    184.53552    152.57838   0.96170609    5606.0151   -38604.484   -51273.064            0    4539926.6     165.5832     165.5832     165.5832  0.021887541    8.2962242    5.7912216    6.6853546   -6.1533626   -11.321898    6.5287697 
   45000          225    326.86727    11.029304   -73250.404   -73980.429    8002.1661   -81982.595     1945.487    176.35822    154.18286    1.0194247    5628.6568   -38616.457   -51271.842            0    4538518.3    165.56608    165.56608    165.56608  0.021894333    18.602703    14.817343  -0.33213543    1.5688404   -5.4580017    10.183915 
   46000          230    326.97738     22.66264   -72516.588   -74016.211    8004.8618   -82021.073    1865.1555    184.31159    154.00701   0.94507103    5645.5971   -38598.387   -51272.702            0    4537280.2    165.55102    165.55102    165.55102  0.021900307    22.761237    25.088038    20.138647     6.269003   0.95021411    14.552762 
   47000          235     326.2687    16.253684   -72976.286   -74051.596    7987.5123   -82039.108    1912.4191    188.38532    153.71673   0.83225295    5538.5219   -38559.354    -51273.63            0    4536344.7    165.53964    165.53964    165.53964  0.021904823    6.4455188    15.373858    26.941676    6.2091445    5.5002479    7.9975606 
   48000          240    326.83155    0.9672004   -74022.986   -74086.964    8001.2917   -82088.256     1930.461    179.73092    153.51505   0.81820112    5446.0281   -38525.567   -51273.242            0    4535629.6    165.53094    165.53094    165.53094  0.021908277   -4.2044977   -1.2791037    8.3852026    4.5659074    7.5388682   -5.2913868 
   49000          245    325.71276   -3.7091508   -74367.573   -74122.259    7973.9022   -82096.162    1895.3417    175.91766    157.14277   0.96908461    5454.6438   -38506.998   -51273.178            0    4534934.3    165.52249    165.52249    165.52249  0.021911636   -4.3960634   -3.6865706   -3.0448185    3.6271632    9.8986652   -5.1354405 
   50000          250    324.52918    1.7023469   -74044.731   -74157.301    7944.9265   -82102.228    1865.6045    187.33615    159.39828    1.0654772    5456.3816    -38497.31   -51274.704            0      4534189    165.51342    165.51342    165.51342  0.021915237   -5.6997238    5.5038308    5.3029337    4.4453332    10.115925    6.7786249 
   51000          255    323.39721    5.3779063   -73836.301   -74191.866    7917.2141    -82109.08    1910.1379    184.83112    154.07579   0.91114561    5415.4408   -38497.831   -51276.646            0    4533456.7    165.50451    165.50451    165.50451  0.021918778   -2.5004683    9.1402925    9.4938946     6.959118    2.2933424    12.730118 
   52000          260    324.81657    7.7587623   -73713.319   -74226.221    7951.9622   -82178.183    1879.4861    181.69847    150.59077    0.7892445    5405.2814   -38517.829     -51278.2            0    4532793.4    165.49643    165.49643    165.49643  0.021921985    18.633399    7.6477489   -3.0048608    8.7857879   -1.9054765    4.5357903 
   53000          265     323.0234    10.036724   -73597.067   -74260.474    7908.0627   -82168.537    1879.5769    183.47285     153.2355   0.87891366    5455.4879   -38561.318    -51279.87            0    4532234.4    165.48963    165.48963    165.48963  0.021924689    37.604172    6.3044525   -13.798452     6.422021    4.6741437   -4.2809011 
   54000          270    322.12368    9.4325603   -73670.967   -74294.382    7886.0365   -82180.418    1881.9545    183.56561    152.48173   0.91534941    5500.8368   -38618.641   -51281.532            0    4531809.6    165.48446    165.48446    165.48446  0.021926744    27.755965    6.1661751   -5.6244596     3.228886    15.240852   -7.3228578 
   55000          275    321.91325   -0.4597343   -74358.405   -74328.022    7880.8847   -82208.907    1928.2161    176.81053    150.68399   0.91010249    5491.3848   -38674.957   -51281.955            0    4531498.6    165.48067    165.48067    165.48067  0.021928249    3.0029239   -2.5706174   -1.8115094   -1.1243684    20.946206   -5.2903683 
   56000          280    323.10051    -9.457816   -74986.585   -74361.589    7909.9504   -82271.539    1905.5992    177.49518    153.30838   0.95640215    5494.2111   -38722.261   -51280.848            0    4531170.5    165.47668    165.47668    165.47668  0.021929836   -8.3728752    -13.55204   -6.4485326   -5.5056706    15.215883   -2.3639124 
   57000          285    321.76128   -8.6645692   -74967.732   -74395.215    7877.1643   -82272.379    1885.1706    192.64709    153.18805   0.96298909    5529.8507   -38754.496   -51279.702            0    4530704.4    165.47101    165.47101    165.47101  0.021932092   -5.9436542   -16.014102   -4.0359514   -7.9345943    8.3800743    3.9225689 
   58000          290    321.36822   -1.1597489   -74505.154   -74428.533    7867.5418   -82296.075    1890.0504    181.60268    149.22089   0.95031455    5530.9194   -38769.214   -51279.604            0    4530109.8    165.46377    165.46377    165.46377  0.021934971   -2.4264311   -11.492187    10.439372   -2.5424312    5.0659099    12.351564 
   59000          295    322.41309    2.6242966     -74288.4   -74461.755    7893.1215   -82354.877    1882.1668    187.98901    148.34094   0.96253024    5479.8762   -38774.198   -51280.015            0      4529483    165.45614    165.45614    165.45614  0.021938006   -4.3444045   -3.8497235    16.067018    1.0775451    -2.102679    12.079769 
   60000          300     322.7319    1.7183985   -74381.603   -74495.102    7900.9265   -82396.028    1862.1584    190.67499    149.66473   0.92678148    5461.4499   -38780.802   -51280.101            0    4528879.4    165.44879    165.44879    165.44879  0.021940931   -3.1597501   0.92427462     7.390671  -0.99906374   -6.8962563    -2.017606 
   61000          305    319.26154  -0.25767743   -74545.335   -74528.318    7815.9673   -82344.285    1901.3721    197.45675    147.38742   0.82155008    5474.5314   -38785.671   -51280.184            0    4528289.7    165.44161    165.44161    165.44161  0.021943788    10.286643    -5.395691   -5.6639841   -4.0736153  -0.82278775   -11.950976 
   62000          310    319.11087  -0.76127179   -74611.252   -74560.984    7812.2786   -82373.263    1897.5499     190.2362    144.26621   0.79712713    5452.7611   -38778.024    -51280.85            0    4527688.9    165.43429    165.43429    165.43429  0.021946699    18.076261    -13.28911    -7.070966   -4.2055338    10.035336   -4.8539436 
   63000          315    320.43928   -4.3306502   -74879.482   -74593.561       7844.8   -82438.361    1859.8487    196.95973    146.34652   0.88796499    5401.4594   -38762.344   -51281.519            0    4527063.5    165.42667    165.42667    165.42667  0.021949731    3.8337722   -13.741117   -3.0846056   -4.4163235    7.7719595    6.5270279 
   64000          320     318.3217   -11.650072   -75395.079   -74626.031    7792.9586   -82418.989    1905.1489    179.02995    148.71166   0.85128537    5386.3249   -38757.668   -51281.388            0    4526359.8     165.4181     165.4181     165.4181  0.021953144   -18.768054   -15.152666   -1.0294954   -4.3816134   -3.9758977    9.9087207 
   65000          325    317.31978   -14.501098   -75615.227   -74658.162    7768.4302   -82426.592    1907.4957    178.89927    148.56833   0.80499089     5385.543    -38766.73   -51281.173            0    4525482.7    165.40741    165.40741    165.40741  0.021957399   -21.366986   -19.466284   -2.6700224   -1.2458042   -9.3476237    5.2076578 
   66000          330    316.63792   -9.0103408   -75284.436     -74689.9    7751.7373   -82441.637    1874.4675    181.72011    150.33249   0.94880552    5421.1617   -38788.604   -51281.664            0    4524397.6    165.39419    165.39419    165.39419  0.021962665   -5.7428078   -15.765309   -5.5229059    4.1553281  -0.95883376   0.42827174 
   67000          335    314.19594   -2.4724259   -74884.163   -74721.067    7691.9543   -82413.021     1868.498    186.86705      150.251   0.99856597    5483.4351   -38821.037   -51282.034            0    4523177.1    165.37932    165.37932    165.37932  0.021968591   -1.5303428   0.30468963   -6.1916246    3.7791149    5.8572344   -3.3233236 
   68000          340    311.55685  -0.54229093   -74787.072   -74751.309    7627.3456   -82378.655    1910.6126    181.21341    146.35401   0.79477413    5512.3655   -38848.549   -51281.446            0    4521909.6    165.36387    165.36387    165.36387  0.021974749   -7.6607718    8.4941971    -2.460298   -7.2430371    3.7766321   -7.5366438 
   69000          345    313.03127    2.5849926   -74610.332   -74780.758    7663.4415   -82444.199    1860.9753    184.87059    148.09641   0.74705755    5501.6916    -38859.85    -51280.73            0    4520633.6    165.34831    165.34831    165.34831  0.021980952   0.21652628    2.1572442    5.3812072    -15.21895    3.7666315   -7.0338556 
   70000          350    313.26133    3.2352995   -74596.612   -74809.852    7669.0738   -82478.926    1867.0199    174.38009     149.9141   0.88818707    5474.4447   -38864.614   -51280.959            0    4519389.2    165.33314    165.33314    165.33314  0.021987004    8.7288353   -9.9774443    10.954507   -10.308433    12.241969    3.8272209 
   71000          355     312.6238   -2.4086816   -74997.364   -74838.649     7653.466   -82492.115    1890.5233    193.32801    146.44039   0.93551977    5440.9497   -38882.505   -51281.787            0    4518180.6     165.3184     165.3184     165.3184  0.021992886   -1.6420444    -15.89103     10.30703   -2.1530723    15.151679    12.305429 
   72000          360    311.13889   -7.7639283   -75378.605   -74867.157    7617.1135   -82484.271    1911.1656    182.93775    146.47768   0.89472092    5468.7469     -38912.1   -51282.393            0    4516934.4     165.3032     165.3032     165.3032  0.021998953   -12.219003   -13.843336    2.7705542   -1.6135824    4.2895112     9.853973 
   73000          365     311.7381   -6.9510453   -75353.016   -74895.254     7631.783   -82527.037    1853.3338    179.13705    148.27598   0.79050147    5503.7187   -38929.424   -51282.869            0    4515581.2    165.28669    165.28669    165.28669  0.022005546   -6.2391478   -8.1082413   -6.5057468   -2.0883286   -8.9577128  -0.29165717 
   74000          370    311.85011   -5.8027645   -75305.149    -74923.13     7634.525   -82557.655    1854.5237    178.52639    149.44556   0.78267232    5477.5556   -38934.439    -51284.05            0    4514126.4    165.26894    165.26894    165.26894  0.022012637    3.6505204   -9.0817799   -11.977034    1.5724232   -9.9894104   0.35037045 
   75000          375    311.00745   -7.2201783   -75425.907   -74950.736    7613.8957   -82564.632    1919.5243    164.82907    154.46116    1.0543744    5428.0013   -38946.337   -51286.165            0      4512584    165.25011    165.25011    165.25011  0.022020161 -0.055193566   -8.2246772   -13.380664    3.7765804    -2.947741    11.192277 
   76000          380    310.59716   -5.1577099   -75317.375   -74978.062    7603.8512   -82581.913    1892.4052    171.87551    155.93841    1.2011197    5449.3164   -38964.136   -51288.514            0    4510944.2    165.23009    165.23009    165.23009  0.022028166   -5.4995864   -4.3209356   -5.6526078   -6.3083044   -3.6869435    15.142003 
   77000          385    312.12688   -3.7939636   -75254.607   -75005.107    7641.3007   -82646.407    1843.8952    175.78121    146.44875   0.88823426    5448.7758    -38971.93   -51290.266            0    4509232.4    165.20919    165.20919    165.20919  0.022036528   -3.9501234   -7.3661139  -0.06565356   -15.905535    -11.45023    9.8610526 
   78000          390    311.24213   -6.0466627   -75429.692   -75032.204    7619.6408   -82651.845    1888.1636    180.81658    144.19754   0.66922586    5399.0115   -38973.193    -51291.51            0    4507466.4    165.18762    165.18762    165.18762  0.022045162   -4.5731124   -8.6804825   -4.8863933   -13.695348   -11.889209    4.3474454 
   79000          395    310.74117   -6.0424064   -75456.133   -75059.087    7607.3768   -82666.464    1895.9632    181.41402    150.89315   0.78730677    5389.3737   -38992.371   -51292.525            0    4505622.6    165.16509    165.16509    165.16509  0.022054184   -9.7987583   -2.7263458    -5.602115   -3.8667042  -0.26439899    4.3969253 
   80000          400    311.31309   -2.3635342   -75241.074   -75085.833     7621.378   -82707.211    1840.4813    181.47465    151.47472   0.85653818    5455.3989   -39043.928   -51292.968            0    4503706.1    165.14167    165.14167    165.14167  0.022063569   -15.611536    11.390055   -2.8691222   0.78573132    6.9335239    4.4646149 
   81000          405    308.52988  -0.91940822   -75172.645   -75112.282    7553.2411   -82665.523    1879.9001    173.73395    148.15476    0.8168397    5534.5451   -39110.425   -51292.249            0    4501762.8    165.11792    165.11792    165.11792  0.022073093   -18.480144    17.850831   -2.1289113    -1.446236   0.88081373     2.722165 
   82000          410    307.69406    1.6646231   -75028.908    -75138.15    7532.7792   -82670.929    1870.2756    174.54613    145.88915   0.75834381    5598.1094   -39169.835   -51290.673            0    4499821.1    165.09417    165.09417    165.09417  0.022082618   -7.7020297    15.861688   -3.1657889   -1.9877558   -10.899759    3.4346787 
   83000          415    308.95725    3.2113664    -74952.88   -75163.537    7563.7038   -82727.241    1863.3819    179.46907    143.87234   0.73728606    5592.7967   -39217.965   -51289.533            0    4497915.2    165.07086    165.07086    165.07086  0.022091974    8.3445252    2.7309356   -1.4413616    4.0800297   -12.800071     5.240289 
   84000          420    312.04126     4.847214   -74871.108   -75188.943    7639.2048   -82828.148    1846.8508    181.44185    144.57985   0.87473238    5547.4426   -39259.858    -51289.48            0    4496070.5    165.04829    165.04829    165.04829  0.022101038    9.7682729   -4.3895139    9.1628828    5.0229089   -5.6635246    2.3661589 
   85000          425    311.21164    5.5635284   -74849.847   -75214.508    7618.8945   -82833.402       1880.2    182.88355    147.08965    0.9955862    5545.1757   -39300.379   -51289.367            0    4494308.6    165.02673    165.02673    165.02673  0.022109703    5.2358351   0.53964993      10.9151   -4.8106587   -3.0242896   -2.5615249 
   86000          430    312.56833    3.8710576   -74986.594   -75240.228    7652.1081   -82892.336    1849.7813    182.37794    145.15344   0.87488151    5555.7808   -39338.235   -51288.069            0    4492638.4    165.00629    165.00629    165.00629  0.022117922    1.6858885    8.3989752     1.528309   -8.1275327   -3.1341937   -4.9109425 
   87000          435    313.28691   -1.4487394   -75361.237   -75266.348    7669.6999   -82936.048    1878.3737    179.81194    145.73204   0.77828339    5512.5501   -39367.451   -51285.843            0    4491030.4     164.9866     164.9866     164.9866  0.022125842   -3.7612202     8.094384    -8.679382   0.23987241    3.7021786   0.51325855 
   88000          440    315.42231    1.8304944   -75173.114   -75292.963    7721.9776   -83014.941    1818.9563    178.79723    150.23584   0.88689325    5516.4196   -39396.246    -51283.99            0    4489427.3    164.96696    164.96696    164.96696  0.022133743   -6.4743696    16.296726   -4.3308731    7.9612295    11.446626    10.940705 
   89000          445    312.71843    5.2786832   -74974.414   -75319.908    7655.7827   -82975.691    1840.6467    179.03012     150.6368   0.93205276     5565.265   -39429.183   -51283.019            0    4487863.6    164.94781    164.94781    164.94781  0.022141455   -10.628383    22.359465    4.1049671  0.098509447    5.3787956    15.021021 
   90000          450     309.3424    4.0746673   -75080.032   -75346.635    7573.1328   -82919.768    1877.6658    176.82957    147.73247   0.83053357    5618.0438   -39458.347   -51282.522            0    4486382.8    164.92967    164.92967    164.92967  0.022148763   -4.4057062     8.886368    7.7433402   -7.2111045   -12.085363    6.4471563 
   91000          455    307.48848    3.3626886   -75152.903   -75372.852    7527.7462   -82900.599    1877.7023    182.34403    145.07933    0.7359818    5645.6947   -39469.807   -51282.348            0    4484973.1    164.91239    164.91239    164.91239  0.022155724    10.775983   -10.285232    9.5973153   0.43095114     -15.2017   -5.3078159 
   92000          460    308.35492    7.6643764   -74897.346   -75398.513    7548.9581   -82947.471    1853.6146    174.68306    143.94446   0.76136815    5614.7708   -39452.917   -51282.328            0    4483630.4    164.89593    164.89593    164.89593  0.022162359    16.385369   -10.355962    16.963722    12.610269    2.9207951    -10.96359 
   93000          465    307.93576     9.998466    -74770.19   -75423.803    7538.6962   -82962.499    1871.5598    169.88787    146.04422   0.87950838     5541.739   -39410.587   -51282.023            0    4482405.3    164.88091    164.88091    164.88091  0.022168416    7.6378142    5.1273343    17.230249    13.734688    14.651987   -7.0218467 
   94000          470    307.09799    5.3237507   -75100.761   -75448.697    7518.1866   -82966.884    1868.3485    188.24896    149.03009   0.92399685     5473.294   -39365.062   -51281.667            0    4481323.1    164.86764    164.86764    164.86764   0.02217377   -5.7303523    14.541142    7.1604622    5.1777286    11.250466    -4.660404 
   95000          475     307.8072   -3.2845966   -75688.011   -75473.392    7535.5491   -83008.941    1849.3212    179.13672    149.27097   0.86519099    5431.8179   -39338.128   -51281.226            0    4480317.5    164.85531    164.85531    164.85531  0.022178747   -13.627575     9.578361   -5.8045761   -3.0979502    5.4371918   -3.6360477 
   96000          480    304.30173   -6.0303625   -75891.704   -75497.766    7449.7301   -82947.496    1851.0509    190.46966    148.41799   0.91231225    5469.3502   -39327.381   -51280.316            0    4479277.9    164.84255    164.84255    164.84255  0.022183895   -10.824201   0.61588664   -7.8827731   -1.2429028    6.5006289     3.702511 
   97000          485    303.13482   -3.7625185   -75767.069   -75521.341    7421.1626   -82942.504    1830.7402    188.61085    146.44014    1.0020836    5483.3608   -39313.344   -51279.314            0    4478165.5    164.82891    164.82891    164.82891  0.022189405   -6.5763847   -1.3677512   -3.3434195    1.9502147    6.1867033    6.1639876 
   98000          490    303.94429   -5.4107628   -75897.512    -75544.23    7440.9796   -82985.209    1868.9113    192.82097    142.30134   0.92046674    5386.6192    -39297.98   -51278.803            0    4477000.6    164.81461    164.81461    164.81461  0.022195179   -5.9325885   -9.7344949   -0.5652049   -3.4512594   -3.2625684   -5.8330686 
   99000          495    306.14056   -2.9029178   -75756.291   -75566.805    7494.7473   -83061.552    1833.3638    185.88122     141.9991   0.81219941    5360.4053    -39305.27   -51278.743            0    4475773.8    164.79956    164.79956    164.79956  0.022201262    2.0038047   -14.591716    3.8791579   -7.4182431   -8.2734261   -17.135719 
  100000          500    303.23038   0.63735337   -75547.432   -75589.023    7423.5021   -83012.525    1846.7223    190.47895    143.01548   0.76858619    5425.9664   -39340.606   -51278.871            0    4474517.8    164.78414    164.78414    164.78414  0.022207494    8.4553023   -11.263599    4.7203567   -2.5926706    1.8378718   -11.031493 
  101000          505    304.20246  -0.25626099    -75627.41   -75610.692    7447.2999   -83057.992     1855.117    173.23803    140.14182    0.7409625     5443.359   -39391.648   -51278.941            0    4473275.8    164.76889    164.76889    164.76889   0.02221366    2.5226535   -1.4698067   -1.8216298    6.0653098    8.9509202    2.9001069 
  102000          510     303.3017   -1.0462183   -75700.299   -75632.064     7425.248   -83057.312    1860.1226    182.86141    140.26268   0.82866085    5484.7182   -39447.649   -51278.456            0    4472041.8    164.75374    164.75374    164.75374   0.02221979  -0.74242925      6.95608   -9.3523057    5.2320543    3.6977605    3.6235814 
  103000          515    304.53215   -1.6540809   -75760.916   -75653.066    7455.3713   -83108.438    1810.1304    188.66648     142.6581   0.92328727    5530.8896   -39504.122   -51277.584            0    4470805.1    164.73855    164.73855    164.73855  0.022225936     6.607007    5.3367255   -16.905975   0.81937916   -3.6375981   -5.4240592 
  104000          520    305.27205   -6.7440846   -76113.614   -75674.009     7473.485   -83147.494     1842.502    181.35922     138.7371   0.79100907    5525.5186   -39558.747   -51277.655            0    4469550.2    164.72314    164.72314    164.72314  0.022232176    9.0430171   -7.6595782   -21.615693    3.8487854   -1.0257595    -2.686513 
  105000          525    306.81233   -8.2130265    -76230.21   -75695.013    7511.1931   -83206.206     1836.138    185.13718    140.23835   0.75736461    5516.9842   -39605.539   -51279.922            0    4468216.9    164.70676    164.70676    164.70676   0.02223881    -1.495384   -10.451627   -12.692068      5.33032    7.3523501    3.5787718 
  106000          530    305.29971   -4.1765655   -75988.188   -75716.112    7474.1621   -83190.274    1846.8362    187.18937    151.52437    1.0236764    5537.5077   -39631.308   -51283.047            0    4466788.4     164.6892     164.6892     164.6892  0.022245922   -6.4246551   -1.9246812   -4.1803602   0.26260665    7.2191806    1.5571836 
  107000          535    305.27451    2.3525763    -75583.72   -75736.925    7473.5452    -83210.47     1811.511    191.66021    149.15776   0.97461917    5552.9012   -39631.765    -51284.91            0    4465321.5    164.67117    164.67117    164.67117  0.022253231     2.248992    6.9764822   -2.1677452   0.53468712     1.984273   -7.1542262 
  108000          540    305.31861    4.9074345   -75438.146   -75757.627    7474.6249   -83232.252    1809.6966    183.63973    136.94941   0.67568674    5534.5754   -39612.266   -51285.522            0    4463900.5     164.6537     164.6537     164.6537  0.022260314    9.7418392    10.645095   -5.6646304     9.478831    2.2976209   -10.870011 
  109000          545    303.47312    2.8609668   -75591.927   -75778.124    7429.4446   -83207.569     1851.794    180.99995    137.82683    0.6653835    5482.5995   -39575.555     -51285.9            0    4462560.4    164.63722    164.63722    164.63722  0.022266999    6.0618199    10.246899   -7.7258184    17.096658    8.7944239    -4.938407 
  110000          550    304.20036   -1.7381455   -75911.515   -75798.426    7447.2487   -83245.675    1830.1972    181.71429    141.36251   0.78122833     5418.323   -39531.684   -51286.369            0    4461273.7     164.6214     164.6214     164.6214  0.022273421   -4.5441117    6.3774234   -7.0477483    7.4944689    7.2856713   -0.1894542 
  111000          555     304.7233   -10.289038   -76487.965   -75818.724    7460.0509   -83278.775    1806.3464    180.24557    141.00861   0.85408378    5381.1567   -39502.154   -51286.232            0    4459972.2    164.60539    164.60539    164.60539  0.022279921   -12.849643   -9.4417108   -8.5757597   -6.1032308   -2.7688309    -0.738822 
  112000          560    302.30764   -19.089244   -77080.326   -75839.081    7400.9121   -83239.993    1831.0561    176.93467    142.43897   0.85608208    5393.7607   -39499.196   -51285.843            0    4458540.3    164.58777    164.58777    164.58777  0.022287076   -17.185156   -28.533012   -11.549563   -6.0284237   -7.2881568   0.80368899 
  113000          565    298.30327   -18.710112   -77075.074   -75858.938    7302.8797   -83161.818    1880.9851     181.4783    141.37317   0.69777452    5427.2346   -39507.156   -51286.431            0    4456869.2    164.56721    164.56721    164.56721  0.022295433   -19.262302   -25.883865    -10.98417  -0.86685785    2.9036067    6.0097618 
  114000          570    299.89924   -5.1637131   -76213.339   -75877.846    7341.9511   -83219.797    1818.2557    189.58861    141.03294   0.68047359    5423.7116   -39505.599   -51287.467            0    4454977.4    164.54392    164.54392    164.54392  0.022304901   -19.155941    2.7710906   0.89371073   -2.6461224    10.400388     9.561076 
  115000          575       298.98    7.6568557   -75398.562   -75895.821    7319.4468   -83215.268    1830.1818    174.68936    147.33056   0.96927625    5424.7602   -39506.125   -51287.075            0    4453042.6    164.52009    164.52009    164.52009  0.022314592   -13.826609    27.850674    8.9465019    -4.330111    3.3459623    5.2167597 
  116000          580    297.62533    9.9632291   -75266.111   -75912.891    7286.2827   -83199.174    1826.8461    180.92602    150.37306    1.0067337    5461.1745   -39534.396   -51285.104            0    4451235.8    164.49784    164.49784    164.49784   0.02232365   -2.9159091    30.684194    2.1214021   0.28215418   -8.9103079   -4.0493113 
  117000          585    297.75946    1.0669453   -75860.074   -75929.311    7289.5663   -83218.877    1836.4884     184.7225     144.9913   0.67187793    5485.2895   -39587.831   -51283.209            0    4449584.4    164.47749    164.47749    164.47749  0.022331935   0.57858358    13.415569   -10.793317    7.0682868   -7.5560146    -6.276319 
  118000          590    298.87945   -5.3381065   -76291.643   -75945.365    7316.9852    -83262.35    1825.5971    183.61667    144.65054   0.63736264    5508.4262   -39642.622   -51282.655            0    4447978.6    164.45771    164.45771    164.45771  0.022339997   -4.5225962    2.5304825   -14.022206    5.0389778   0.67312006   -1.1477372 
  119000          595    297.17953   -5.6417439    -76326.77    -75960.93    7275.3689   -83236.298    1851.3801    186.23042    147.42715   0.88205822    5548.2371   -39687.663   -51282.792            0    4446331.8    164.43741    164.43741    164.43741  0.022348271   -13.285542    1.3789116   -5.0186014  -0.88560259   -2.4898079    4.6338988 
  120000          600    300.16487   -4.8498065     -76290.3   -75975.934    7348.4542   -83324.388     1819.395    191.29663    147.53407   0.88899219    5527.0743    -39727.77   -51282.807            0    4444634.7    164.41648    164.41648    164.41648  0.022356804   -12.085493   -5.7009056    3.2369787    5.7441749   -9.7047085    1.6231233 
  121000          605    300.20034  -0.25307673   -76007.091   -75990.693    7349.3224   -83340.015    1845.1436     186.0068    147.61484   0.73781347    5527.3373   -39763.718   -51283.138            0    4442903.3    164.39513    164.39513    164.39513  0.022365517    1.0413485   -9.6780482    7.8774695    16.274523   -3.7366573  -0.77538185 
  122000          610    298.72051     11.11692   -75284.881   -76004.929    7313.0942   -83318.024    1857.2527    184.96575    146.66947   0.72911943    5565.8587   -39789.414   -51284.086            0    4441208.9    164.37423    164.37423    164.37423  0.022374049    16.045003    3.2369614    14.068795    20.285069    11.215987    4.6021463 
  123000          615    300.40845    15.286997   -75028.815   -76018.623    7354.4174    -83373.04    1828.7004    186.92022    147.76426   0.90205994    5558.3903   -39810.927    -51284.79            0    4439690.6     164.3555     164.3555     164.3555  0.022381701    14.674667    20.898052    10.288273    11.953656    9.9958602    6.2836741 
  124000          620    302.28423    7.2025113   -75566.106   -76032.321     7400.339    -83432.66    1797.9698    183.82476    150.61314    1.0118817    5561.2406   -39842.572   -51284.748            0      4438396    164.33952    164.33952    164.33952  0.022388229   0.47797836    22.375167   -1.2456118    1.0332728   -8.8348144   -3.6972801 
  125000          625    300.73448   -5.4625525   -76399.772   -76046.279     7362.399   -83408.677    1841.0769    193.68611    148.69514   0.90071635    5569.5845   -39877.591    -51285.03            0    4437215.1    164.32494    164.32494    164.32494  0.022394188   -12.621582    3.7943435   -7.5604193   -2.6280753   -21.832266   -7.3986496 
  126000          630    301.00178   -7.2726877   -76530.707   -76060.205     7368.943   -83429.148    1864.0125    190.09783    144.65817   0.81057227    5554.3351   -39896.159   -51286.903            0    4435988.1     164.3098     164.3098     164.3098  0.022400382   -14.981009   -7.9352824    1.0982288  -0.58486836   -12.673646    8.5672159 
  127000          635    304.46238    3.2671658   -75862.818   -76074.124    7453.6632   -83527.787    1785.8938    189.02059    142.21566   0.82727906    5547.9833   -39904.573   -51289.155            0    4434693.9    164.29382    164.29382    164.29382  0.022406919    -4.365081   0.71054593    13.456032  -0.95750217    3.6047863    21.970811 
  128000          640    303.86987    9.5743534   -75469.166   -76088.219    7439.1576   -83527.376    1810.8757    192.68909    141.36192   0.83753256    5544.3624   -39927.667   -51289.836            0    4433458.7    164.27856    164.27856    164.27856  0.022413162    8.3741202     4.273364    16.075576   -4.7658597    4.5745107    9.2271099 
  129000          645    303.44358    10.110713   -75448.942   -76102.514    7428.7216   -83531.236    1862.7646     176.5951    142.23536   0.85177222    5548.8942   -39972.922   -51289.655            0    4432367.1    164.26508    164.26508    164.26508  0.022418682    20.367647   0.29415954    9.6703321    -5.233678    -5.630337    -9.147049 
  130000          650    303.73237    12.744186   -75293.348   -76116.978    7435.7915   -83552.769    1827.0965    183.27771    144.95652   0.85114759    5603.2989   -40022.218   -51290.032            0    4431433.5    164.25354    164.25354    164.25354  0.022423405    22.042859    5.1825173    11.007183   0.41955896   -2.0982642   -7.8522977 
  131000          655    304.26538    10.606923    -75446.34   -76131.727    7448.8403   -83580.568    1797.6259    179.59936    143.57738   0.73780999     5646.281   -40058.241   -51290.148            0    4430681.5    164.24425    164.24425    164.24425  0.022427211    6.6823585    19.933244    5.2051671    4.8973141    5.9291908    3.1953732 
  132000          660    300.66453   -1.7029078   -76256.701   -76146.679    7360.6865   -83507.366     1894.431    183.33115    146.16474   0.79889281    5625.9736   -40069.564   -51288.502            0      4430067    164.23666    164.23666    164.23666  0.022430322   -12.836768     18.62063   -10.892585  -0.16982898    1.0390411    1.7811612 
  133000          665    301.90679   -6.4070038   -76575.407   -76161.522    7391.0987   -83552.621    1836.9733    187.07795    152.73569     1.077691    5610.7001   -40055.143   -51286.042            0    4429440.3    164.22891    164.22891    164.22891  0.022433495     -9.14113   -2.3055876   -7.7742938   -10.917983   -6.7617235   -6.2754651 
  134000          670    303.09409  -0.98154218   -76239.809   -76176.412    7420.1656   -83596.578    1790.2744    190.20469    148.24528    0.9835355    5581.2512    -40022.56   -51284.977            0    4428738.1    164.22023    164.22023    164.22023  0.022437052    8.8207305   -21.033116     9.267759   -10.623575   -1.6270298   0.90715367 
  135000          675    302.52096    8.2697344   -75657.291   -76191.336    7406.1345   -83597.471    1810.5073    186.25824    142.24338   0.70290059     5536.208   -39987.843   -51285.548            0    4428029.8    164.21148    164.21148    164.21148  0.022440641    19.215374   -16.635443    22.229272   -1.2249885    11.370076    16.618628 
  136000          680    299.53406    16.080517   -75167.785   -76206.098     7333.011   -83539.109    1827.6173     189.7663    147.28313   0.77641603    5544.8868   -39963.181   -51286.258            0    4427437.5    164.20416    164.20416    164.20416  0.022443643    23.652155    3.2223576    21.367038     1.551341    7.8681488    11.688698 
  137000          685    298.67638    16.982467   -75124.025   -76220.483    7312.0138   -83532.497    1799.7488    188.07424     147.3392   0.90509246    5575.6639   -39958.044   -51286.184            0    4427060.2    164.19949    164.19949    164.19949  0.022445556    20.772772    19.752404    10.422224  0.098583604   -9.3612924   -9.3116602 
  138000          690    295.73878    10.540233   -75553.915   -76234.412    7240.0972   -83474.509    1842.3021     180.2958    144.66032   0.91184293    5612.8227   -39969.687   -51285.815            0    4426903.6    164.19756    164.19756    164.19756   0.02244635    9.7187668     19.34077    2.5611628   -1.9757616   -14.003555   -13.642424 
  139000          695    294.66713    4.7048388   -75943.771   -76247.522    7213.8618   -83461.384    1816.4543    169.97034    150.19917   0.90379468    5660.7489   -39973.948   -51285.713            0    4426884.9    164.19732    164.19732    164.19732  0.022446445   0.26666056    13.902318  -0.05446173   -5.2023618   -2.9027252    4.8494826 
  140000          700    295.19175   -3.9583368    -76515.39   -76259.832    7226.7052   -83486.537    1802.8045    175.42187    149.59444   0.78449134    5623.7015    -39953.48   -51285.364            0    4426913.5    164.19768    164.19768    164.19768    0.0224463    -8.681756    6.5565131   -9.7497676   -11.974982    3.6825329    19.200574 
  141000          705    295.30256   -8.7932337   -76839.104     -76271.4     7229.418   -83500.818    1829.2066     174.3756    141.81512   0.73373586     5569.177   -39931.417   -51284.709            0    4426877.2    164.19723    164.19723    164.19723  0.022446484   -13.113071   -4.2387057   -9.0279241   -13.812578    2.5841438     11.99195 
  142000          710    296.46653   -2.5088048    -76444.32   -76282.354    7257.9135   -83540.267    1806.3001    175.78982    144.04812    0.9768861    5543.8312    -39926.03   -51285.183            0    4426719.2    164.19528    164.19528    164.19528  0.022447285    -7.777462   -8.9963823    9.2474298   -10.180333    1.1265008    1.7940966 
  143000          715    296.79845    8.9661278   -75713.919   -76292.738    7266.0394   -83558.778    1798.3161     177.9113     146.5271    1.0083898    5532.6926   -39928.026   -51287.208            0    4426522.5    164.19284    164.19284    164.19284  0.022448283  -0.12935151    2.2568175    24.770918   -4.6675638    3.7461781    4.0061876 
  144000          720    296.46562    15.046398   -75331.334   -76302.654    7257.8913   -83560.545    1818.4101    178.75138    142.60113   0.73383025     5515.376   -39927.021   -51289.396            0      4426434    164.19175    164.19175    164.19175  0.022448731    6.5349382    18.187646    20.416611   -4.5024801    -1.276007    5.9603619 
  145000          725    295.93612    10.832212   -75612.783   -76312.071    7244.9283       -83557    1827.5923    181.04479    146.50887   0.75780077    5510.2302   -39932.787   -51290.346            0    4426529.8    164.19293    164.19293    164.19293  0.022448246    6.4122782    19.417484    6.6668737   -8.2690356   -11.699906   -2.4376841 
  146000          730    298.58006  -0.27009887   -76338.447    -76321.01    7309.6557   -83630.665    1789.6876    178.08316    150.54481   0.95394791      5495.54   -39954.949   -51290.526            0    4426752.5    164.19569    164.19569    164.19569  0.022447116   -1.9813405    2.0575365  -0.88649255   -10.426958   -9.8376586    -7.574816 
  147000          735    297.45982   -10.087869   -76980.969    -76329.67    7282.2308   -83611.901    1831.3031    177.15981    148.21206   0.94600833     5504.666   -39983.102   -51291.086            0    4426954.4    164.19818    164.19818    164.19818  0.022446093   -7.0814557   -16.859022   -6.3231288   -6.3323875    4.4291587   -1.4572818 
  148000          740    297.21845   -10.267727   -77000.895   -76337.975    7276.3217   -83614.297    1807.2411    180.35207    146.13735   0.83231584    5547.8468   -40004.659   -51292.047            0    4427011.3    164.19889    164.19889    164.19889  0.022445804   -6.9498196   -15.494417   -8.3589455  -0.76044477    7.9002584    6.8226941 
  149000          745    296.80777   -7.4591939   -76827.492   -76345.912    7266.2676    -83612.18    1818.1272    172.01183    149.13785   0.83140624    5557.3804    -40017.22   -51292.448            0      4426913    164.19767    164.19767    164.19767  0.022446302   -9.1897338   -9.1152438    -4.072604   0.71783418   -5.3168845    2.7335066 
  150000          750    297.64835  -0.72975934   -76400.557   -76353.445    7286.8462   -83640.291    1808.2585    178.62281    148.72758   0.82517233     5536.749   -40021.018   -51292.456            0      4426704    164.19509    164.19509    164.19509  0.022447362   -5.2598087   -2.6012803     5.671811  -0.37261143   -15.823356   -10.965501 
  151000          755      297.532    8.1050063   -75837.395   -76360.619    7283.9979   -83644.617    1823.1576    185.22301    145.56163   0.79060088    5508.0404   -40014.267   -51293.124            0    4426477.4    164.19229    164.19229    164.19229  0.022448511    6.9259609    2.3338173    15.055241    -2.875339   -8.0740258   -13.759558 
  152000          760      299.984    9.7232531   -75739.868    -76367.54    7344.0262   -83711.566    1800.8102    189.26145    148.79272   0.89179508    5451.1619   -40008.047   -51294.437            0      4426345    164.19065    164.19065    164.19065  0.022449183    11.225469    2.9776723    14.966618    1.7230815    2.2264174   -6.1579313 
  153000          765    299.65774  -0.39899934   -76400.212   -76374.455    7336.0389   -83710.494    1833.0905    185.40339    151.91386   0.96410232    5428.0903   -40015.197   -51294.759            0    4426320.9    164.19035    164.19035    164.19035  0.022449305  -0.88860332    -2.798291    2.4898963     7.558931   -2.3064032   -3.2239213 
  154000          770    300.03643    -9.760124   -77011.359   -76381.316    7345.3099   -83726.626    1787.5306    189.09813    148.67391   0.86385044    5473.2024   -40032.566   -51293.429            0    4426279.6    164.18984    164.18984    164.18984  0.022449515   -9.4606764   -12.140759   -7.6789361    9.7272197   -6.8477148   -8.5527636 
  155000          775    300.28825   -14.334727   -77313.534   -76388.227    7351.4746   -83739.702    1788.7864    177.13749    145.60757   0.75592387    5485.4311   -40045.502   -51291.919            0    4426094.3    164.18755    164.18755    164.18755  0.022450454   -8.4865344   -20.957145     -13.5605     9.638392    -1.090971    -9.413727 
  156000          780     299.4605   -10.988717   -77104.414   -76395.154    7331.2102   -83726.364    1821.9994    173.09938    147.12762   0.79729547     5470.108   -40048.155   -51291.341            0    4425707.6    164.18277    164.18277    164.18277  0.022452416   -2.5417298   -19.762895   -10.661525    10.761794    5.8970864  -0.96052966 
  157000          785    299.18531  -0.92825542   -76461.883   -76401.977    7324.4732    -83726.45    1786.7452    178.00821    146.44265    0.8094666     5501.575    -40049.07    -51290.96            0    4425168.5     164.1761     164.1761     164.1761  0.022455151     8.069167   -12.235845    1.3819114    7.4502668    2.1081248    4.9451372 
  158000          790    299.18017    2.6057052   -76240.467   -76408.609    7324.3474   -83732.956     1806.401    167.05306    143.12591   0.76765611    5496.0723    -40055.95   -51290.426            0    4424600.6    164.16908    164.16908    164.16908  0.022458033    10.522056   -10.901186    8.1962448    1.0669737   -8.3276099      -1.5368 
  159000          795    299.96238    3.0482234   -76218.477   -76415.149    7343.4968   -83758.646    1790.7081    180.74413    146.04828   0.86911556    5485.0241   -40071.247   -51290.793            0    4424059.6    164.16239    164.16239    164.16239   0.02246078    8.7245349   -7.5808137     8.000949   -1.9868962   -10.832091   -6.9362015 
  160000          800     297.6182    4.1691045   -76152.644   -76421.605    7286.1082   -83707.714    1812.8079    172.62825    148.36103   0.94874976    5542.3704     -40092.4    -51292.43            0    4423555.1    164.15615    164.15615    164.15615  0.022463341    8.4123697  -0.82776384    4.9227078    4.0553539    1.5338398   0.46031986 
  161000          805    296.97065    3.4730175   -76203.718    -76427.75    7270.2551   -83698.005    1794.0411    176.60001    145.50696   0.84919797    5585.5437   -40106.602   -51293.943            0    4423099.3    164.15051    164.15051    164.15051  0.022465656    8.5798584    2.5561565  -0.71696236    9.8109104     12.92153    10.393231 
  162000          810    295.15056   0.16067658   -76423.123   -76433.486    7225.6969   -83659.183      1809.99     173.9405    147.34265   0.82131803    5607.7489   -40105.291   -51293.736            0    4422678.8    164.14531    164.14531    164.14531  0.022467792     5.063299   0.66301182   -5.2442811    9.9673868    10.682393    5.7238669 
  163000          815    295.52461    2.2474428   -76293.698   -76438.645    7234.8541   -83673.499    1746.3067    177.50224    151.17416   0.87924284    5636.2145   -40093.074   -51292.501            0    4422259.7    164.14012    164.14012    164.14012  0.022469921    4.5626257    4.2236031   -2.0439004    6.8992021     2.433622    -6.620978 
  164000          820    294.02379    4.9061528    -76126.82    -76443.21    7198.1119   -83641.322     1785.035    179.36601    148.91688   0.81770559    5609.1332   -40072.843   -51291.747            0    4421862.6    164.13521    164.13521    164.13521  0.022471939    6.4228849    8.2624891  0.033084422    4.0668093    2.8581166   -3.3234157 
  165000          825    294.27193    7.6528027   -75953.588   -76447.067    7204.1868   -83651.254    1800.6893    174.48407     146.2423   0.69980658    5566.4044   -40048.157   -51291.617            0    4421525.1    164.13103    164.13103    164.13103  0.022473655    10.328509    7.3366328    5.2932664    6.6108913    7.0316189     9.040351 
  166000          830    293.15946    6.9512625   -76002.012   -76450.228     7176.952    -83627.18    1811.3097    174.44844    149.71108   0.74117604     5551.086   -40023.217    -51291.26            0    4421279.1    164.12799    164.12799    164.12799  0.022474905    14.471835   -2.7953421    9.1772941    4.4009666    1.8965633    8.2201285 
  167000          835    293.11462    4.7075296   -76149.058   -76452.588    7175.8543   -83628.442    1783.9673    174.63265    154.14079   0.92602704    5555.4728   -40007.182     -51290.4            0    4421117.4    164.12599    164.12599    164.12599  0.022475727    14.396501   -7.9876574    7.7137452  -0.51184775   -6.8029362    -2.851759 
  168000          840    292.95168    1.2752697   -76371.905   -76454.129    7171.8652   -83625.995    1796.5435    177.03261    154.64298   0.97682237    5539.2954   -40004.698   -51289.788            0      4421007    164.12462    164.12462    164.12462  0.022476288    7.8554588   -5.2989911    1.2693415  -0.93813359   -2.9578468   -4.7456462 
  169000          845    293.79502   -1.0000114   -76519.322   -76454.847    7192.5113   -83647.358    1810.7451    175.99191    153.54493   0.88826753    5513.4929   -40012.493   -51289.528            0    4420903.2    164.12334    164.12334    164.12334  0.022476816   -2.4678062   -2.8882365    2.3560086     5.521915    12.104609    8.0087682 
  170000          850    294.68274   -2.4089626   -76610.136   -76454.824    7214.2439   -83669.068    1806.6595    173.95618    153.06497   0.85701439    5514.7647   -40029.301    -51289.07            0    4420773.8    164.12173    164.12173    164.12173  0.022477474   -6.7455077   -5.5642628    5.0828827    6.6653448    17.122051    16.892012 
  171000          855    294.73733   -3.4899179   -76679.144   -76454.149    7215.5803    -83669.73    1818.8523    182.05255    150.43253   0.87954258    5529.5785   -40062.331   -51289.194            0    4420597.7    164.11956    164.11956    164.11956  0.022478369   -1.7533933   -9.8785415    1.1621812   -1.2049071    5.1965447    6.9059368 
  172000          860    298.88138  -0.11362303   -76460.215    -76452.89    7317.0325   -83769.922    1773.6324      177.234    146.74789   0.86029105    5535.9705   -40113.351   -51291.016            0    4420366.8     164.1167     164.1167     164.1167  0.022479543    7.2374289   -6.4550479   -1.1232502   -6.8682607    -5.390396   -4.7056387 
  173000          865    299.16105    4.0738596   -76188.791   -76451.404    7323.8793   -83775.283    1811.1603    181.18222    146.72648   0.83369333    5553.5974   -40174.992   -51293.791            0    4420123.1    164.11368    164.11368    164.11368  0.022480783    13.136421   -1.3211053   0.40626351   0.49708643   -1.7340281   -1.2741577 
  174000          870    299.44258    5.5331284    -76093.16   -76449.825    7330.7715   -83780.597    1839.5665    186.92191    147.21827   0.83222082    5585.1095   -40244.434   -51295.811            0    4419921.4    164.11118    164.11118    164.11118  0.022481809    18.651389   -3.8866186    1.8346146    9.2614822    1.1523575    6.6915117 
  175000          875    299.56763    4.6332155   -76149.522    -76448.17    7333.8328   -83782.002    1852.9111    182.84438    145.67357   0.81804559     5657.476   -40325.583   -51296.143            0    4419780.6    164.10944    164.10944    164.10944  0.022482525    15.442955   -1.2770521  -0.26625675    9.7696037  -0.49696728    4.9400942 
  176000          880    302.11489    7.0029121   -75995.114   -76446.499    7396.1935   -83842.693     1781.251    175.93968    144.86378   0.82501382    5761.0331   -40410.672   -51295.934            0    4419697.1    164.10841    164.10841    164.10841   0.02248295    9.0537441    10.139843    1.8151496    1.4280462  -0.50546536    1.4698406 
  177000          885    298.04259    9.4418414   -75836.409       -76445    7296.4979   -83741.498    1862.3078    192.27797    142.43105   0.79288896    5829.2171   -40472.225   -51296.299            0    4419696.4     164.1084     164.1084     164.1084  0.022482953     5.972296    16.360489    5.9927395   -3.0434281    5.9180697    13.040837 
  178000          890    298.22776    17.251815   -75331.339   -76443.366    7301.0311   -83744.397    1846.4804    185.70205    138.07996   0.72443464    5863.7239   -40482.008     -51297.1            0    4419821.7    164.10995    164.10995    164.10995  0.022482316    16.514907     20.87429    14.366248  -0.91044495    7.4858002    24.400468 
  179000          895    297.61189    20.208024   -75138.885   -76441.567    7285.9536    -83727.52    1819.0581    181.90678    141.49706   0.82887932    5861.0404   -40434.737   -51297.115            0    4420166.4    164.11422    164.11422    164.11422  0.022480563    25.320712     17.79615     17.50721   -4.6202707   -1.9195131    13.907933 
  180000          900    298.41721    13.141868   -75592.261   -76439.548     7305.669   -83745.217    1784.7692    186.80007    146.44049   0.91609163    5775.0765   -40342.647   -51296.573            0    4420764.7    164.12162    164.12162    164.12162   0.02247752    19.386744    7.1888953    12.849964   -13.689334   -9.6378875   -2.4333991 
  181000          905    295.80836    3.9695034    -76181.26   -76437.227    7241.8007   -83679.028     1868.033    187.48654    144.91033   0.81871109    5633.0099   -40216.517   -51296.769            0    4421525.3    164.13103    164.13103    164.13103  0.022473654    13.815563   -6.6262875    4.7192348   -13.200441   -3.4850861       1.7733 
  182000          910     296.6598    4.9450623   -76115.489   -76434.422     7262.645   -83697.067    1821.7924     175.3938    148.16827   0.86115257    5528.7163   -40074.331   -51297.668            0    4422337.6    164.14108    164.14108    164.14108  0.022469526    17.523851   -4.6607218    1.9720576   0.56527929    4.7404246    15.906526 
  183000          915    296.46868   0.31274086   -76410.978   -76431.152    7257.9663   -83689.119      1794.94    174.35447    151.83203   0.92646815    5436.4744   -39949.474   -51298.172            0    4423192.4    164.15166    164.15166    164.15166  0.022465183    8.4373212   0.11941473   -7.6185134    6.0308341    3.5016088    15.059872 
  184000          920    295.61134   -13.895443   -77323.876   -76427.344    7236.9774   -83664.322    1819.2906    175.96999    149.10656   0.81885451    5362.8777   -39874.044   -51298.342            0    4424020.1     164.1619     164.1619     164.1619   0.02246098   -15.978161   -6.3528378    -19.35533  -0.97841358  -0.47463948   0.45007083 
  185000          925    294.40455   -20.170633   -77724.514   -76422.925    7207.4335   -83630.358    1832.3551    169.65042     149.3293   0.80797719    5358.2055   -39841.914   -51298.793            0      4424645    164.16963    164.16963    164.16963  0.022457808   -23.613754   -19.694303   -17.203843   -4.2671492     3.995947   -2.4752341 
  186000          930    294.34912   -12.601459   -77231.175   -76417.954    7206.0766   -83624.031    1820.0651     175.5193     153.0103   0.89489357    5353.5813   -39827.659   -51299.443            0    4424988.2    164.17387    164.17387    164.17387  0.022456066   -4.2117747    -29.23093   -4.3616721    2.2302941    6.2311562    3.8735795 
  187000          935    296.98888   -2.3534779   -76564.253   -76412.368    7270.7016    -83683.07    1791.1944    166.91531    153.22785   0.86615616     5335.828   -39831.486   -51299.615            0    4425142.2    164.17578    164.17578    164.17578  0.022455285    15.808527   -32.226247    9.3572865     2.545876  -0.78580523    4.0047938 
  188000          940    296.17486   0.40927751   -76379.959   -76406.373    7250.7732   -83657.146     1812.966     175.1085    151.24025   0.80727987    5372.5335   -39870.809   -51298.993            0    4425239.2    164.17698    164.17698    164.17698  0.022454792    12.838786   -22.448407    10.837454   -4.8099053   -7.5031347    0.3748064 
  189000          945    299.13786   -3.3356285   -76615.216   -76399.938    7323.3116    -83723.25    1805.3445    178.51586    152.14054   0.92920445    5379.5047   -39941.254    -51298.43            0    4425319.6    164.17797    164.17797    164.17797  0.022454385  -0.65895852   -11.626813    2.2788862   -9.6088909  -0.75460918    3.9520948 
  190000          950    300.75212   -4.6507482    -76693.48   -76393.325    7362.8307   -83756.156    1822.5649    172.62587    151.96137    1.0449963    5419.4619   -40025.555    -51298.26            0    4425342.1    164.17825    164.17825    164.17825   0.02245427  -0.42572602   -8.6492164   -4.8773022   -1.7862172    12.742096    10.072096 
  191000          955    302.27106   -3.3405412    -76602.41   -76386.817    7400.0166   -83786.834    1790.4496    174.66556    148.64736    1.0030024     5500.941   -40104.809   -51297.731            0      4425290     164.1776     164.1776     164.1776  0.022454535    8.9351349    -12.05569   -6.9010688    3.1182307    10.932329    8.4508623 
  192000          960    301.03112   -8.7229792   -76943.509   -76380.558    7369.6611   -83750.219    1869.8677    175.87588    146.88245   0.90881915    5522.7419   -40169.882   -51296.614            0    4425166.9    164.17608    164.17608    164.17608  0.022455159    3.7422152   -18.856356   -11.054796   -3.6457605   -3.8828177   -3.8969228 
  193000          965    304.53618   -5.2978751   -76716.396   -76374.509      7455.47   -83829.978    1816.1734    175.11244    145.50297   0.78025792    5545.3357    -40216.71   -51296.174            0    4424920.7    164.17304    164.17304    164.17304  0.022456409   -1.8769158   -11.460168   -2.5565417    -7.262021   -11.599933   -9.6803497 
  194000          970    304.52317    5.7766741   -75996.144   -76368.902    7455.1514   -83824.054    1800.5037    183.83808    146.84018   0.76042786    5584.8368    -40243.88   -51296.953            0    4424596.9    164.16903    164.16903    164.16903  0.022458052    7.5651025   0.57866099    9.1862589    1.8416363    -4.359578    1.3316892 
  195000          975     304.1363    10.703759   -75673.209   -76363.862    7445.6803   -83809.543    1853.4658    175.85787    147.65875   0.82986627    5563.9472   -40253.362    -51297.94            0    4424333.6    164.16578    164.16578    164.16578  0.022459389     18.20214    7.2121329    6.6970032    12.788978    3.3523091    15.203719 
  196000          980    304.09949    6.6205849   -75932.172   -76359.347    7444.7791   -83804.127    1877.0755    168.53844    146.01777   0.87879851    5544.9101   -40243.509   -51298.038            0    4424195.6    164.16407    164.16407    164.16407  0.022460089    13.498718    13.088008   -6.7249715    15.305998    2.4362902    16.341916 
  197000          985    305.95109    2.6242667   -76186.059    -76355.38    7490.1089   -83845.489    1772.5223    178.77107    146.55419   0.87824677    5567.5193    -40213.85   -51297.885            0    4424138.1    164.16336    164.16336    164.16336  0.022460381    3.6929671    14.814527   -10.634694    16.356442    1.2882987    7.1673314 
  198000          990    302.58735    -3.048101   -76548.755   -76352.089    7407.7597   -83759.848    1838.5629     170.8231    146.88748   0.82360317    5550.3623   -40169.261   -51298.046            0    4424100.5    164.16289    164.16289    164.16289  0.022460572   -1.3372097   -0.4136046   -7.3934887    16.896934    7.4501306  -0.56426299 
  199000          995    300.32471   -3.8799772    -76599.51   -76349.176    7352.3671   -83701.543    1880.0146    178.85584    145.22499   0.80531419     5499.688   -40108.172   -51297.959            0      4424013    164.16181    164.16181    164.16181  0.022461016    5.6704054   -17.223711 -0.086625995    13.465211    8.7950327  -0.40017145 
  200000         1000    300.90754  -0.54460716   -76381.452   -76346.315    7366.6357   -83712.951    1811.5539    189.09407    147.82319   0.90501758    5471.7432   -40036.999   -51297.071            0    4423863.1    164.15996    164.15996    164.15996  0.022461777    8.0785433   -16.550948    6.8385829    2.4837831    1.1304878   -0.2565245 
  201000         1005    299.92708    -1.877064   -76464.651   -76343.552    7342.6328   -83686.185    1814.7456    180.78284    149.72898   0.87537993    5439.2452   -39975.966   -51295.596            0    4423685.3    164.15776    164.15776    164.15776   0.02246268   -5.4136144   -7.0457887    6.8282109   -5.3694981   -5.3927089   -4.6680609 
  202000         1010    297.49828   -2.8503657   -76524.661   -76340.779    7283.1722   -83623.952    1856.2056    179.50781    145.41061   0.69812849     5424.838    -39936.19   -51294.422            0    4423468.5    164.15508    164.15508    164.15508  0.022463781   -12.524986  -0.64864097    4.6225301   -1.0198535  -0.78237906   -5.2168131 
  203000         1015    297.32338   0.86535343   -76281.919   -76337.741    7278.8904   -83616.631    1828.6332    170.68381    146.30987   0.79206591    5449.6657   -39918.693   -51294.023            0    4423205.2    164.15182    164.15182    164.15182  0.022465118   -6.7740864    3.1535683    6.2165783    10.148212    6.7901781  -0.22728992 
  204000         1020    297.80841   0.22041545   -76320.125   -76334.343    7290.7648   -83625.108      1808.06    175.39818    150.06853   0.96574391    5452.7199   -39918.589   -51293.731            0    4422935.2    164.14848    164.14848    164.14848   0.02246649   -6.9622115    4.5949228    3.0285351     8.750311   0.82047615   0.95673914 
  205000         1025     295.8173   -6.0727963   -76722.381   -76330.687    7242.0195   -83572.707    1884.2609    176.64494    146.76994   0.84267688    5447.4211    -39935.61   -51293.036            0    4422647.1    164.14491    164.14491    164.14491  0.022467953   -18.640281   -1.4713294    1.8932212    1.1084318    -9.587964   -3.9361059 
  206000         1030    298.11884    -5.355047   -76671.986   -76326.616    7298.3645   -83624.981    1835.6164     179.4364    146.29862   0.82176936    5477.6467   -39971.821   -51292.979            0    4422271.1    164.14026    164.14026    164.14026  0.022469864    -20.31604   -6.6201979    10.871097    -3.178596   -5.0313946   -4.8895603 
  207000         1035    299.21586   -2.0364866   -76453.557   -76322.229    7325.2212    -83647.45    1843.4382    186.01631    147.52872   0.94774116    5494.8277   -40026.327   -51293.882            0    4421809.2    164.13455    164.13455    164.13455  0.022472211   -17.348816   -2.9939281    14.233284    1.2246341    8.5415265    1.5873209 
  208000         1040    301.08141    2.9579895   -76126.995   -76317.727    7370.8922    -83688.62    1840.1698    183.75547     145.2797   0.89426405    5527.8734   -40091.903   -51294.689            0    4421308.7    164.12835    164.12835    164.12835  0.022474755   -9.0402844    6.9293307    10.984922    6.0217695    8.1905162    5.1650614 
  209000         1045    299.82232    6.3880365   -75901.411   -76313.269     7340.068   -83653.337    1867.2426    186.12247    148.84459    0.8375536    5597.5247   -40159.037   -51294.872            0    4420834.4    164.12248    164.12248    164.12248  0.022477166   -2.2711155    11.298769    10.136457   0.32797292   -2.8480993   -1.6143921 
  210000         1050    302.06941    8.2202936   -75778.883   -76308.825      7395.08   -83703.905    1834.7987    184.63168    152.16536   0.80244247    5635.8353   -40216.797   -51295.341            0    4420435.1    164.11754    164.11754    164.11754  0.022479196   0.58309311    6.8282898    17.249498   -3.3130682   -6.5692605   -8.6632206 
  211000         1055    303.54838    7.1593542   -75843.082   -76304.596    7431.2872   -83735.883     1841.527     195.0153    145.21712   0.62620832    5630.7944    -40252.59   -51296.474            0    4420133.4    164.11381    164.11381    164.11381   0.02248073   -3.4084659  -0.73894677    25.625475    1.3790788 -0.089871845   -3.3765671 
  212000         1060    305.63565    4.2978404   -76023.776   -76300.815    7482.3865   -83783.201      1827.11    196.99838    142.23816   0.60555352    5607.1556   -40259.627   -51297.681            0    4419917.5    164.11114    164.11114    164.11114  0.022481829   -4.5721776   -7.1832447    24.648944    1.1782605  -0.52078698     2.315277 
  213000         1065    305.02012   -2.1197106   -76434.324   -76297.693    7467.3174   -83765.011    1880.5184    186.37905    148.56546   0.78329762    5561.1978   -40244.048   -51298.407            0    4419742.5    164.10897    164.10897    164.10897  0.022482719   -10.819268   -11.270974     15.73111   -7.4220469   -13.881643  -0.55817381 
  214000         1070     304.8473   -1.4235704   -76386.995    -76295.24    7463.0865   -83758.326    1858.4707    179.15513    148.62836   0.77734935    5574.3751   -40220.601   -51299.132            0    4419533.6    164.10639    164.10639    164.10639  0.022483781   -16.258059   0.73967767     11.24767   -10.985586   -20.110674   -7.4613164 
  215000         1075     303.4945     3.780389   -76049.692   -76293.341     7429.968   -83723.309    1830.5097    179.07479    146.42048   0.76180965     5611.028   -40190.518   -51300.586            0    4419297.3    164.10346    164.10346    164.10346  0.022484984   -14.958879     15.90745    10.392597    -5.374782   -9.6426177   -6.8960733 
  216000         1080    301.53177     3.725406   -76051.788   -76291.882    7381.9177     -83673.8    1877.4599    167.51404     145.8635   0.85478437    5583.3106   -40146.073    -51302.73            0    4419092.8    164.10093    164.10093    164.10093  0.022486024   -7.2023292    9.7672337    8.6113136    2.5618089   -3.1871565    2.0668824 
  217000         1085    301.15654    2.0629134   -76157.681   -76290.627    7372.7317   -83663.358    1866.7504    176.66514    143.29072   0.86732735    5540.2343   -40086.467   -51304.699            0    4418925.3    164.09886    164.09886    164.09886  0.022486877     4.430002   -8.2400562    9.9987943    0.9338382   -7.6745918    6.6136973 
  218000         1090    302.54197   -0.4055523   -76315.678   -76289.543    7406.6489   -83696.192    1819.8097    173.38163    146.25589   0.94100738    5497.5887    -40028.28   -51305.889            0    4418772.3    164.09696    164.09696    164.09696  0.022487655    4.5297114       -15.45    9.7036317   -3.4397367   -12.214439    4.9553094 
  219000         1095    302.21609   -5.8170595   -76663.611   -76288.756    7398.6708   -83687.427    1832.7773    184.73231    151.39001    1.0211793    5433.6552   -39984.325   -51306.678            0    4418595.9    164.09478    164.09478    164.09478  0.022488553   -7.8624271   -13.471796     3.883045   -3.5166398   -4.7163444    6.6826937 
[...]
  449000         2245    296.63332   -7.9737026   -77634.494   -77151.081    7261.9969   -84413.078    1809.7003    176.89632    143.48769   0.80258963    5361.7903   -40586.255   -51319.501            0    4157015.5    160.79056    160.79056    160.79056  0.023903646   -11.225461   -13.540112   0.84446491   -11.475061   -2.1439433   -7.2049034 
  450000         2250    298.04283   -24.253786   -78619.927   -77150.135    7296.5037   -84446.639    1862.8687    174.67102    146.09854   0.91698647    5353.5855   -40664.214   -51320.566            0    4155280.7    160.76819    160.76819    160.76819  0.023913626   -33.037642   -12.993344   -26.730372   0.40464365    15.477967   -1.0961065 
  451000         2255    299.13626   -17.931579   -78235.356   -77149.217    7323.2724    -84472.49    1872.9665    182.26283    144.72114   0.88761372    5367.6074    -40718.88   -51322.055            0    4153278.7    160.74237    160.74237    160.74237  0.023925153   -20.631284   -1.0150191   -32.148435    2.3959976    13.390863    1.5559341 
  452000         2260    302.36435    9.2872635   -76585.393   -77147.638    7402.3004   -84549.939    1801.6953    177.70774    139.84077   0.71432661    5404.5035   -40750.835   -51323.565            0    4151090.4    160.71413    160.71413    160.71413  0.023937766    20.159752    8.8888889   -1.1868499   -11.617962   0.83837068    -8.953591 
  453000         2265    301.74021    17.987551   -76057.258   -77145.667    7387.0207   -84532.688    1808.0999    168.71866    141.27612   0.73232686    5474.3261   -40801.412   -51324.429            0    4149008.3    160.68726    160.68726    160.68726  0.023949778    28.714316    5.2302058    20.018133   -13.270772   -3.2302247   -20.871562 
  454000         2270    299.72946   0.39666674   -77120.095   -77144.086    7337.7947   -84481.881    1827.0732    178.87528    142.08226   0.77503464     5561.721    -40867.67   -51324.738            0    4147131.3    160.66302    160.66302    160.66302  0.023960618   -3.4345356   -1.9087927    6.5333286    2.1392761    3.0156882   -18.352385 
  455000         2275    298.19736   -13.385505   -77952.228   -77143.013    7300.2868     -84443.3    1863.4602    183.71929    139.43757   0.67918178     5584.278   -40889.931   -51324.943            0    4145275.3    160.63905    160.63905    160.63905  0.023971346   -22.356975   -3.7502038   -14.049335    10.386117    5.6876812   -4.9368883 
  456000         2280    299.38118   -3.0619564   -77326.811    -77141.79    7329.2683   -84471.058     1823.476    176.47722    142.83177   0.70067603    5554.8261   -40844.626   -51324.743            0    4143296.7    160.61349    160.61349    160.61349  0.023982793   -4.8017863    2.6592247   -7.0433077   -2.1233568    7.0953679    2.4392234 
  457000         2285    298.94787    5.1942574   -76826.373   -77140.088    7318.6603   -84458.748     1806.215    172.22644    145.17051   0.77409554    5521.2153   -40780.643   -51323.707            0      4141294    160.58761    160.58761    160.58761  0.023994391    12.917304    3.1600218   -0.4945536   -14.576087    13.292944   -3.2588746 
  458000         2290    298.32003   -7.2742199   -77577.479   -77138.348    7303.2899   -84441.638    1828.4817    174.80494    141.06776   0.70264612     5468.079   -40732.021   -51322.753            0      4139348    160.56245    160.56245    160.56245  0.024005671  -0.73483153   -4.3906315   -16.697197   -7.1843532      16.9953   -7.7275342 
  459000         2295    296.75927    -14.79696   -78029.591    -77136.76    7265.0802    -84401.84    1871.9318    175.20625    142.80645   0.71511885    5408.9828   -40678.245   -51323.238            0    4137336.1    160.53643    160.53643    160.53643  0.024017345   -8.7462427   -8.2569225   -27.387716    9.2080557    4.7480593   -3.3468264 
  460000         2300    297.09277      4.65693   -76853.786   -77134.634    7273.2449   -84407.879    1812.8418    180.00135     148.4109   0.83357214    5384.3512   -40609.193   -51325.125            0    4135195.9    160.50874    160.50874    160.50874  0.024029775    19.286454   -5.7793447    0.4636805    12.643747   -13.018612   -5.2429789 
  461000         2305    297.48215      17.2611   -76091.062   -77131.517    7282.7773   -84414.294     1790.662    183.39292    146.02778   0.80592557    5360.9796   -40569.392    -51326.77            0    4133129.3      160.482      160.482      160.482  0.024041791    35.460639   -8.9204939    25.243155    6.9798476   -15.143174    -11.91637 
  462000         2310    297.26203   -4.4602951   -77396.979   -77128.245    7277.3886   -84405.634    1848.3513    191.70335    143.23127   0.75526756    5332.2892   -40594.876   -51327.088            0    4131257.1    160.45777    160.45777    160.45777  0.024052686   -8.1836116   -13.146043    7.9487694    8.7722475   -1.7632273   -9.5807932 
  463000         2315    297.30401   -27.554481    -78784.76   -77125.365    7278.4162   -84403.781    1872.3961    184.39276    142.58335   0.68947001    5380.3593   -40656.623   -51327.579            0      4129351    160.43308    160.43308    160.43308  0.024063788   -52.482924    -5.705407   -24.475112    12.333711    11.346901    3.4155363 
  464000         2320    298.56962   -18.888053   -78259.365   -77122.483    7309.4003   -84431.884    1838.1123    181.02589    140.71982   0.59495175    5444.6698   -40707.545   -51329.462            0    4127169.9    160.40483    160.40483    160.40483  0.024076506   -36.341446     5.148339   -25.471051    1.3554925    11.908958    5.6625689 
  465000         2325    297.56726    7.1962041   -76685.839   -77118.735    7284.8611   -84403.596    1825.5953    183.69807    142.65725   0.70316865    5537.0389   -40761.646   -51331.642            0    4124810.3    160.37426    160.37426    160.37426  0.024090279    10.908244    6.5843886    4.0959793   -14.688969    8.6865721   -9.1896122 
  466000         2330    296.24021     15.57928   -76177.396   -77114.073    7252.3731   -84366.446    1841.7565     187.9158    143.53112   0.78942829    5637.4891   -40844.748   -51333.179            0    4122553.9    160.34501    160.34501    160.34501  0.024103464    24.107501    2.3426569    20.287681   -9.8847943    10.147633   -20.031641 
  467000         2335    298.16089    7.3163357    -76669.42   -77109.082    7299.3939   -84408.476    1847.7597     186.6027     141.1407   0.74253913    5671.7503   -40922.492    -51333.98            0      4120502     160.3184     160.3184     160.3184  0.024115466    6.9164655    1.3313616     13.70118    10.492305    13.366723   -16.430078 
  468000         2340    298.36846    12.406772   -76358.722   -77103.939    7304.4756   -84408.415    1866.5244    181.89567    144.28627   0.84738745    5664.5518   -40932.507   -51334.014            0    4118586.2    160.29355    160.29355    160.29355  0.024126684     16.38983    4.4800216    16.350466    20.570274    7.7802322   -4.9225591 
  469000         2345    299.52513    28.272727   -75400.798   -77098.299    7332.7925   -84431.092    1817.0164    187.33725    150.47575    1.0160495    5621.3635   -40875.313   -51332.987            0    4116863.7     160.2712     160.2712     160.2712  0.024136778    38.781941    9.1953421    36.840897    6.9914111 -0.029957745    1.2955271 
  470000         2350    300.87139    18.257739    -75996.74    -77092.57    7365.7508   -84458.321    1812.9837    187.67316    149.07114   0.91506149     5537.768   -40815.623   -51331.109            0    4115478.8    160.25323    160.25323    160.25323  0.024144901    19.285413    7.3021105    28.185694   -9.8283523     2.775742    3.7774377 
  471000         2355    303.30952    -13.92921   -77923.206   -77087.412    7425.4396   -84512.852    1808.4351    186.06833    144.56996   0.69534176    5452.6554   -40775.885   -51329.391            0    4114307.2    160.23802    160.23802    160.23802  0.024151777    -24.79983   -1.0551182   -15.932684   -8.3368516    5.6776364    10.230972 
  472000         2360    301.07356   -26.148825   -78651.611   -77083.101    7370.7002   -84453.801    1859.0438    170.05853    144.41165   0.65601413    5416.3784   -40716.041   -51328.308            0    4113004.8    160.22111    160.22111    160.22111  0.024159424   -32.514659   -4.6842692   -41.247547   -2.6774395    -3.575858    15.011397 
  473000         2365    302.72299   -7.7949123   -77546.351   -77078.959    7411.0804    -84490.04    1823.7864     163.7589    141.75401   0.61516827    5338.7733    -40631.33   -51327.398            0    4111440.9     160.2008     160.2008     160.2008  0.024168614  -0.69192722   -4.9716146   -17.721195   -11.475311   -16.121194    4.9596984 
  474000         2370    303.78714     4.534651   -76802.875   -77074.669    7437.1324   -84511.802    1818.3008    176.43716    140.03799   0.59195693    5266.9929   -40588.195   -51325.967            0    4109801.3     160.1795     160.1795     160.1795  0.024178256    14.785654    -4.651548    3.4698466   -18.164131   -13.200409   -10.600657 
  475000         2375    303.48898    -7.152721   -77499.408   -77070.859    7429.8331   -84500.692    1837.7645    185.04717      143.102   0.73616136    5278.1407   -40621.483       -51324            0    4108216.1    160.15891    160.15891    160.15891  0.024187586   -6.5432464   -6.7795073   -8.1354093   -4.3369019    6.2105451   -14.901718 
  476000         2380    302.84492   -17.416063   -78110.849   -77067.799    7414.0656   -84481.864    1865.0491    185.66855    144.54654   0.85383932    5330.0496   -40685.422    -51322.61            0      4106572    160.13754    160.13754    160.13754  0.024197269   -24.287087   -6.2342303   -21.726872    11.731492    12.406101   -6.4866347 
  477000         2385    302.43123   -1.2896688   -77142.271   -77065.066    7403.9378   -84469.004    1836.4252     185.3401    142.50355   0.84652163      5422.65   -40734.196   -51322.574            0    4104777.6    160.11421    160.11421    160.11421  0.024207847   -4.2276623    6.3521905   -5.9935346     6.674044   -1.0220577   -2.3077116 
  478000         2390    302.67016    15.061037   -76160.891   -77062.115    7409.7872   -84471.902    1789.0457    179.58616    140.44005   0.78686874    5521.1424   -40780.159   -51322.744            0    4103001.6    160.09111    160.09111    160.09111  0.024218325    22.005709    15.747066    7.4303351    -9.577745   -5.4398656   0.54222283 
  479000         2395    302.98222  -0.83390947   -77109.364   -77059.484    7417.4269   -84476.911    1835.1276    174.27826    141.65392   0.80389382    5531.2185   -40838.078   -51321.915            0    4101400.1    160.07028    160.07028    160.07028  0.024227782    3.4639016     4.960967   -10.926597   -11.796451    3.6474062    7.8957488 
  480000         2400    301.82648   -16.724105   -78057.626   -77057.665    7389.1327   -84446.797    1858.9822     188.7077    145.54483   0.83380586    5555.0862   -40875.054   -51320.898            0    4099817.1    160.04969    160.04969    160.04969  0.024237137   -20.404014  -0.24450026   -29.523799     2.123227    5.3902753    12.656419 
  481000         2405    301.12475   -2.1769444   -77186.231   -77056.123    7371.9534   -84428.076    1836.6109    184.82266    143.09913   0.71614697     5579.136   -40851.441    -51321.02            0      4098097     160.0273     160.0273     160.0273   0.02424731  -0.21707229    6.7048587    -13.01862    10.487386   -5.0812347    8.6402247 
  482000         2410    304.62294    17.444952   -76012.053   -77054.243    7457.5938   -84511.836    1790.7479    180.66934    137.24086   0.64404679    5487.8998   -40786.995   -51322.043            0    4096389.2    160.00507    160.00507    160.00507  0.024257419    26.806462     12.19957    13.328824   0.46264912   -10.853868  0.004821975 
  483000         2415    304.32783    8.3699564   -76552.898   -77052.749    7450.3691   -84503.119    1854.8352    188.82861    139.27534   0.80622724    5372.9419   -40737.372   -51322.433            0    4094888.6    159.98553    159.98553    159.98553  0.024266308    9.4170895    3.8906712    11.802108   -7.5313502   -1.4287324   -1.8637356 
  484000         2420     304.6338   -10.769921   -77695.145   -77052.186    7457.8598   -84510.045    1843.2535    184.02019    145.47545   0.92083591    5348.1152   -40709.212   -51322.619            0    4093503.7    159.96749    159.96749    159.96749  0.024274517   -22.080629   -1.1362951   -9.0928386   -2.3971755    6.3680776    7.1513808 
  485000         2425    302.82592   -11.528407   -77740.405   -77052.411    7413.6003   -84466.011     1849.139    184.30459     144.8269   0.75614602    5352.3823   -40673.276   -51324.145            0    4092034.7    159.94835    159.94835    159.94835  0.024283232   -21.257984    7.7189297   -21.046168    2.1804201    -2.004466    13.271487 
  486000         2430    303.91959     3.592973   -76838.514   -77052.855    7440.3748   -84493.229    1811.6332    181.66943    144.59079   0.70311116    5330.9226   -40636.331   -51326.417            0    4090473.9    159.92801    159.92801    159.92801  0.024292498    1.9973465    16.111094   -7.3295218   -9.7561821    -12.09767    10.332084 
  487000         2435    302.77526     3.590854   -76839.388   -77053.522      7412.36   -84465.883    1824.3365    190.75385    147.70729   0.87958691    5334.9356   -40636.466   -51328.029            0      4088968    159.90839    159.90839    159.90839  0.024301444    2.2972305    8.7097641  -0.23443254   -15.887947   -4.7948214    6.0116172 
  488000         2440    302.83827   -15.062791   -77952.711   -77054.786    7413.9027   -84468.688    1849.1612    195.16071    142.38917   0.80243103    5340.2068   -40667.122   -51329.287            0    4087511.4    159.88939    159.88939    159.88939  0.024310104   -24.666546    -7.760753   -12.761073    3.2523275    9.6336927    1.5550202 
  489000         2445    302.50957   -18.174808   -78139.774   -77056.757    7405.8557   -84462.613    1878.0402    180.08146    137.55785   0.64455495    5349.1842   -40676.784   -51331.336            0    4085919.4    159.86863    159.86863    159.86863  0.024319576   -28.184717   -10.285946   -16.053762    19.115572    9.9470186  -0.39054854 
  490000         2450    302.07772    8.0834719   -76577.261   -77058.741    7395.2833   -84454.025    1805.5118    180.42804    141.64129   0.76212481    5406.8759   -40655.218   -51334.026            0    4084176.9     159.8459     159.8459     159.8459  0.024329952    9.6373521    8.2890686    6.3239949    2.1191385   -3.3120134   -1.6689186 
  491000         2455    300.74599    18.396433   -75965.108   -77060.428    7362.6808   -84423.109    1809.0708    182.38199    142.87012   0.87121582    5431.3856   -40653.779    -51335.91            0    4082547.4    159.82464    159.82464    159.82464  0.024339663    23.850898    16.579014    14.759386   -23.380244   -12.184226   0.82494324 
  492000         2460    299.79697   -5.1057559   -77366.312   -77062.422    7339.4474   -84401.869    1874.8303    184.68807    141.86264   0.84475225     5428.771   -40696.289   -51336.578            0    4081129.1    159.80613    159.80613    159.80613  0.024348122   -4.0014304   0.65224514   -11.968083   -19.856167   -9.6670828    5.9767649 
  493000         2465     299.7795   -21.399142   -78338.128   -77064.922    7339.0197   -84403.941    1875.0615     175.6513    142.52599   0.80702405    5469.6521   -40730.397   -51337.242            0    4079684.7    159.78728    159.78728    159.78728  0.024356742   -24.991713   -4.9077373   -34.297976    1.3907657   -3.0844382    10.401558 
  494000         2470    299.02832   -6.5992275   -77459.933   -77067.449    7320.6298   -84388.079     1859.754    184.35013    140.42594   0.76213364    5474.3269   -40709.358    -51338.34            0    4078049.1    159.76592    159.76592    159.76592  0.024366511   -12.326142    6.2127725   -13.684313    5.2906793   -4.3024242    6.8787088 
  495000         2475     300.4953    13.702535   -76254.791   -77069.403    7356.5436   -84425.947    1831.1974    179.49138    140.87855   0.81132101    5431.9549   -40671.856   -51338.424            0      4076375    159.74406    159.74406    159.74406  0.024376518     5.694298    18.511116     16.90219   -3.8139413   -4.5592972   -3.6207262 
  496000         2480    301.06216    5.2143915   -76761.389   -77071.269     7370.421    -84441.69    1835.5666    179.51831    146.73592   0.90089091    5404.1091   -40672.399   -51336.121            0    4074864.2    159.72432    159.72432    159.72432  0.024385556   -7.6343854    9.3840683    13.893492   0.63258516    4.3517374    -9.594101 
  497000         2485    302.33646   -17.260182   -78099.089   -77073.717    7401.6177   -84475.335    1855.0526    189.03954    144.89853   0.80584761    5359.7666   -40692.461   -51332.437            0    4073427.9    159.70555    159.70555    159.70555  0.024394154   -33.741181   -5.7014324   -12.337933    8.9269678       8.2468   -6.2201038 
  498000         2490    302.72032   -12.612197   -77825.684   -77076.725    7411.0151    -84487.74    1866.2934    183.95511    140.60723   0.77158066     5348.718   -40698.463   -51329.622            0    4071845.4    159.68487    159.68487    159.68487  0.024403635   -28.873369    1.0273053   -9.9905274   0.37242972   -5.7207377   -1.9147416 
  499000         2495    304.12644    12.477635   -76339.027    -77079.69    7445.4389   -84525.129    1782.8529    184.40326    143.29196   0.92382877    5408.6247   -40717.426     -51327.8            0    4070170.2    159.66296    159.66296    159.66296  0.024413679   -1.9064497    21.068833     18.27052   -19.261633   -25.635005    -3.439694 
  500000         2500    301.93907    9.6695902   -76509.062   -77082.827     7391.889   -84474.716    1853.4821    179.99329     143.4425   0.90010564    5460.2523   -40786.981   -51325.805            0    4068643.3      159.643      159.643      159.643  0.024422841   -4.1575089    16.013598    17.152681   -22.687786   -27.478805   -5.3115326 
Loop time of 3145.88 on 30 procs for 500000 steps with 10248 atoms

Performance: 0.069 ns/day, 349.543 hours/ns, 158.938 timesteps/s
-0.0% CPU use with 30 MPI tasks x 1 OpenMP threads

MPI task timing breakdown:
Section |  min time  |  avg time  |  max time  |%varavg| %total
---------------------------------------------------------------
Pair    | 11.846     | 213.48     | 1305.8     |1962.5 |  6.79
Bond    | 0.87366    | 4.4146     | 43.831     | 482.1 |  0.14
Kspace  | 911.05     | 2048.1     | 2255.2     | 659.8 | 65.10
Neigh   | 0.74271    | 0.75047    | 0.75469    |   0.4 |  0.02
Comm    | 14.633     | 24.244     | 34.044     | 110.3 |  0.77
Output  | 2.6777     | 2.751      | 2.7572     |   0.8 |  0.09
Modify  | 542.19     | 667.68     | 837.04     | 430.2 | 21.22
Other   |            | 184.5      |            |       |  5.86

Nlocal:        341.600 ave        1111 max           6 min
Histogram: 8 4 4 8 1 0 1 2 1 1
Nghost:        1283.23 ave        2763 max         527 min
Histogram: 7 3 8 4 2 0 0 1 2 3
Neighs:        37557.3 ave      228058 max         288 min
Histogram: 14 10 1 2 1 0 0 1 0 1

Total # of neighbors = 1126720
Ave neighs/atom = 109.94536
Ave special neighs/atom = 7.4012490
Neighbor list builds = 200
Dangerous builds = 0
unfix md1
uncompute cmol1
unfix rg1
uncompute gyr1
unfix shake1

write_dump all custom radon_md_last.dump id x y z xu yu zu vx vy vz fx fy fz modify sort id
write_data sampling_last.data
System init for write_data ...
PPPM initialization ...
  using 12-bit tables for long-range coulomb (src/kspace.cpp:340)
  G vector (1/distance) = 0.181651
  grid = 72 72 72
  stencil order = 5
  estimated absolute RMS force accuracy = 0.00037394505
  estimated relative force accuracy = 1.1261244e-06
  using double precision MKL FFT
  3d grid and FFT values/proc = 24969 15552
quit
