units real
atom_style full
boundary f f f

pair_style lj/charmm/coul/charmm 8.0 12.0
dielectric 1.000000
bond_style harmonic
angle_style harmonic
dihedral_style fourier
improper_style cvff
special_bonds amber
pair_modify mix arithmetic
neighbor 2.0 bin
neigh_modify delay 0 every 1 check yes
read_data radon_md_lmp.data
Reading data file ...
  orthogonal box = (-7.0525382 -7.0525382 -7.0525382) to (7.0525382 7.0525382 7.0525382)
  1 by 2 by 11 MPI processor grid
  reading atoms ...
  10 atoms
  scanning bonds ...
  4 = max bonds/atom
  scanning angles ...
  6 = max angles/atom
  scanning dihedrals ...
  6 = max dihedrals/atom
  reading bonds ...
  9 bonds
  reading angles ...
  15 angles
  reading dihedrals ...
  12 dihedrals
Finding 1-2 1-3 1-4 neighbors ...
  special bond factors lj:    0        0        0.5     
  special bond factors coul:  0        0        0.8333333333333334
     4 = max # of 1-2 neighbors
     6 = max # of 1-3 neighbors
     8 = max # of 1-4 neighbors
     9 = max # of special neighbors
  special bonds CPU = 0.002 seconds
  read_data CPU = 0.007 seconds

thermo_style custom step time temp press enthalpy etotal ke pe ebond eangle edihed eimp evdwl ecoul elong etail vol lx ly lz density pxx pyy pzz pxy pxz pyz
thermo_modify flush yes
thermo 1000

dump dump0 all custom 1000 radon_md.dump id type mol x y z ix iy iz vx vy vz
restart 10000 radon_md_1.rst radon_md_2.rst

undump dump0
min_style cg
minimize 0.000100 0.000001 10000 100000
Neighbor list info ...
  update every 1 steps, delay 0 steps, check yes
  max neighbors/atom: 2000, page size: 100000
  master list distance cutoff = 14
  ghost atom cutoff = 14
  binsize = 7, bins = 3 3 3
  1 neighbor lists, perpetual/occasional/extra = 1 0 0
  (1) pair lj/charmm/coul/charmm, perpetual
      attributes: half, newton on
      pair build: half/bin/newton
      stencil: half/bin/3d
      bin: standard
WARNING: Proc sub-domain size < neighbor skin, could lead to lost atoms (src/domain.cpp:965)
Per MPI rank memory allocation (min/avg/max) = 11.44 | 11.50 | 12.02 Mbytes
Step Time Temp Press Enthalpy TotEng KinEng PotEng E_bond E_angle E_dihed E_impro E_vdwl E_coul E_long E_tail Volume Lx Ly Lz Density Pxx Pyy Pzz Pxy Pxz Pyz 
       0            0            0    372.02396     19.70335    4.4777946            0    4.4777946    1.3064733      1.67991    5.3633635            0   0.80246774     -4.67442            0            0    2806.2498    14.105076    14.105076    14.105076   0.03436761    831.57317   -549.40829      833.907    15.258604   -33.072505   -657.56934 
      32           32            0    13.710657    2.2920127    1.7308866            0    1.7308866   0.01699226   0.45167287    5.3467026            0   0.50236635   -4.5868474            0            0    2806.2498    14.105076    14.105076    14.105076   0.03436761    40.476182    10.223426   -9.5676383   -4.2113535   -9.5689628    6.3920129 
Loop time of 0.00472645 on 22 procs for 32 steps with 10 atoms

-0.0% CPU use with 22 MPI tasks x 1 OpenMP threads

Minimization stats:
  Stopping criterion = energy tolerance
  Energy initial, next-to-last, final = 
      4.47779462378268   1.73102296472149   1.73088662669635
  Force two-norm initial, final = 71.911803 1.7956016
  Force max component initial, final = 37.842316 1.0236125
  Final line search alpha, max atom move = 0.017504313 0.017917633
  Iterations, force evaluations = 32 91

MPI task timing breakdown:
Section |  min time  |  avg time  |  max time  |%varavg| %total
---------------------------------------------------------------
Pair    | 4.5262e-06 | 8.6825e-06 | 2.8018e-05 |   0.0 |  0.18
Bond    | 1.0051e-05 | 2.0578e-05 | 0.0001111  |   0.0 |  0.44
Neigh   | 1.1552e-05 | 1.6827e-05 | 2.4498e-05 |   0.0 |  0.36
Comm    | 0.0013573  | 0.0019662  | 0.0026765  |   1.0 | 41.60
Output  | 0          | 0          | 0          |   0.0 |  0.00
Modify  | 0          | 0          | 0          |   0.0 |  0.00
Other   |            | 0.002714   |            |       | 57.42

Nlocal:       0.454545 ave           4 max           0 min
Histogram: 17 0 3 0 0 0 0 1 0 1
Nghost:        9.54545 ave          10 max           6 min
Histogram: 1 0 1 0 0 0 0 3 0 17
Neighs:       0.954545 ave           6 max           0 min
Histogram: 17 1 0 0 0 1 0 0 1 2

Total # of neighbors = 21
Ave neighs/atom = 2.1000000
Ave special neighs/atom = 7.2000000
Neighbor list builds = 1
Dangerous builds = 0
reset_timestep 0
dump dump0 all custom 1000 radon_md.dump id type mol x y z ix iy iz vx vy vz

write_dump all custom radon_md_last.dump id x y z xu yu zu vx vy vz fx fy fz modify sort id
write_data radon_md_last.data
System init for write_data ...
WARNING: Proc sub-domain size < neighbor skin, could lead to lost atoms (src/domain.cpp:965)
quit
units real
atom_style full
boundary p p p

pair_style lj/charmm/coul/long 12.0 16.0
kspace_style pppm 1e-6
dielectric 1.000000
bond_style harmonic
angle_style harmonic
dihedral_style fourier
improper_style cvff
special_bonds amber
pair_modify mix arithmetic
neighbor 2.0 bin
neigh_modify delay 0 every 1 check yes
read_data init.data
Reading data file ...
  orthogonal box = (-62.240333 -62.240333 -62.240333) to (62.240333 62.240333 62.240333)
  1 by 2 by 11 MPI processor grid
  reading atoms ...
  10000 atoms
  reading velocities ...
  10000 velocities
  scanning bonds ...
  4 = max bonds/atom
  scanning angles ...
  6 = max angles/atom
  scanning dihedrals ...
  6 = max dihedrals/atom
  reading bonds ...
  9000 bonds
  reading angles ...
  15000 angles
  reading dihedrals ...
  12000 dihedrals
Finding 1-2 1-3 1-4 neighbors ...
  special bond factors lj:    0        0        0.5     
  special bond factors coul:  0        0        0.8333333333333334
     4 = max # of 1-2 neighbors
     6 = max # of 1-3 neighbors
     8 = max # of 1-4 neighbors
     9 = max # of special neighbors
  special bonds CPU = 0.003 seconds
  read_data CPU = 0.062 seconds

thermo_style custom step time temp press enthalpy etotal ke pe ebond eangle edihed eimp evdwl ecoul elong etail vol lx ly lz density pxx pyy pzz pxy pxz pyz
thermo_modify flush yes
thermo 1000

dump dump0 all custom 1000 npt.dump id type mol x y z ix iy iz vx vy vz
dump xtc0 all xtc 1000 npt.xtc
dump_modify xtc0 unwrap yes
restart 10000 radon_md_1.rst radon_md_2.rst

undump dump0
undump xtc0
min_style cg
minimize 0.000100 0.000001 10000 100000
PPPM initialization ...
  using 12-bit tables for long-range coulomb (src/kspace.cpp:340)
  G vector (1/distance) = 0.18496289
  grid = 60 60 60
  stencil order = 5
  estimated absolute RMS force accuracy = 0.00041368548
  estimated relative force accuracy = 1.2458015e-06
  using double precision MKL FFT
  3d grid and FFT values/proc = 27300 10800
Neighbor list info ...
  update every 1 steps, delay 0 steps, check yes
  max neighbors/atom: 2000, page size: 100000
  master list distance cutoff = 18
  ghost atom cutoff = 18
  binsize = 9, bins = 14 14 14
  1 neighbor lists, perpetual/occasional/extra = 1 0 0
  (1) pair lj/charmm/coul/long, perpetual
      attributes: half, newton on
      pair build: half/bin/newton
      stencil: half/bin/3d
      bin: standard
Per MPI rank memory allocation (min/avg/max) = 14.06 | 14.22 | 14.32 Mbytes
Step Time Temp Press Enthalpy TotEng KinEng PotEng E_bond E_angle E_dihed E_impro E_vdwl E_coul E_long E_tail Volume Lx Ly Lz Density Pxx Pyy Pzz Pxy Pxz Pyz 
       0            0            0   -32.145741   -57962.858   -57058.574            0   -57058.574    117.81639    487.65698    4929.3308            0    342.36461   -9137.1098   -53798.633            0    1928882.2    124.48067    124.48067    124.48067  0.049999996   -11.264963   -3.2038398    -81.96842    5.8332732  0.095303496    5.8571008 
      11           11            0    22.210723   -56922.498   -57547.302            0   -57547.302     229.9439    401.92731    4989.4729            0     304.3844    -9657.731     -53815.3            0    1928882.2    124.48067    124.48067    124.48067  0.049999996    13.997394    15.279292    37.355484   -2.2036217 0.0036941958    2.7323924 
Loop time of 0.0915094 on 22 procs for 11 steps with 10000 atoms

-0.0% CPU use with 22 MPI tasks x 1 OpenMP threads

Minimization stats:
  Stopping criterion = energy tolerance
  Energy initial, next-to-last, final = 
     -57058.5737800153  -57541.7456904847  -57547.3023027931
  Force two-norm initial, final = 805.22728 104.81709
  Force max component initial, final = 334.30843 32.452310
  Final line search alpha, max atom move = 0.0039633740 0.12862064
  Iterations, force evaluations = 11 18

MPI task timing breakdown:
Section |  min time  |  avg time  |  max time  |%varavg| %total
---------------------------------------------------------------
Pair    | 0.012642   | 0.016186   | 0.0216     |   1.9 | 17.69
Bond    | 0.0013723  | 0.0016125  | 0.0019548  |   0.4 |  1.76
Kspace  | 0.038065   | 0.043803   | 0.047632   |   1.2 | 47.87
Neigh   | 0.0013416  | 0.0013575  | 0.0013696  |   0.0 |  1.48
Comm    | 0.0019937  | 0.0020428  | 0.0021118  |   0.1 |  2.23
Output  | 0          | 0          | 0          |   0.0 |  0.00
Modify  | 0          | 0          | 0          |   0.0 |  0.00
Other   |            | 0.02651    |            |       | 28.97

Nlocal:        454.545 ave         540 max         390 min
Histogram: 3 4 4 0 2 2 1 4 1 1
Nghost:        3412.27 ave        3754 max        3130 min
Histogram: 1 1 3 6 2 3 4 1 0 1
Neighs:        30127.1 ave       39894 max       23163 min
Histogram: 2 3 3 4 2 3 1 2 0 2

Total # of neighbors = 662796
Ave neighs/atom = 66.279600
Ave special neighs/atom = 7.2000000
Neighbor list builds = 1
Dangerous builds = 0
reset_timestep 0
dump dump0 all custom 1000 npt.dump id type mol x y z ix iy iz vx vy vz
dump xtc0 all xtc 1000 npt.xtc
dump_modify xtc0 unwrap yes

timestep 0.002000
fix shake2 all shake 1e-4 1000 0 m 1.0
       0 = # of size 2 clusters
       0 = # of size 3 clusters
    2000 = # of size 4 clusters
       0 = # of frozen angles
  find clusters CPU = 0.001 seconds

# npt
fix md2 all npt temp 300.000000 300.000000 100.000000 iso 0.100000 0.100000 1000.000000 nreset 1000

run 1000000
PPPM initialization ...
  using 12-bit tables for long-range coulomb (src/kspace.cpp:340)
  G vector (1/distance) = 0.18496289
  grid = 60 60 60
  stencil order = 5
  estimated absolute RMS force accuracy = 0.00041368548
  estimated relative force accuracy = 1.2458015e-06
  using double precision MKL FFT
  3d grid and FFT values/proc = 27300 10800
Per MPI rank memory allocation (min/avg/max) = 15.28 | 15.43 | 15.53 Mbytes
Step Time Temp Press Enthalpy TotEng KinEng PotEng E_bond E_angle E_dihed E_impro E_vdwl E_coul E_long E_tail Volume Lx Ly Lz Density Pxx Pyy Pzz Pxy Pxz Pyz 
       0            0            0    419.24302   -45763.862    -57557.49            0    -57557.49    219.75572    401.92731    4989.4729            0     304.3844    -9657.731     -53815.3            0    1928882.2    124.48067    124.48067    124.48067  0.049999996    449.84897    439.67873    368.20135   -9.2436577    1.9811764    9.8633659 
    1000            2  0.066842211    27.370599   -56767.148   -57537.105    1.5937522   -57538.699     221.9819    398.39203    4989.8443            0    299.37534   -9633.5003   -53814.792            0    1928883.7     124.4807     124.4807     124.4807  0.049999956    20.610966    21.423927    40.076905   -1.3527029  -0.63234164    2.5735325 
    2000            4   0.20713914    24.194202   -56856.499   -57537.103     4.938922   -57542.042    219.66404    393.39065    4991.3165            0    294.18295   -9625.8766   -53814.719            0    1928888.2     124.4808     124.4808     124.4808  0.049999839    18.703113    19.459968    34.419524  -0.92875061  -0.84135276    2.2640009 
    3000            6   0.30772172    19.469011   -56989.411   -57537.093    7.3371628    -57544.43    216.58817    388.05018    4993.1613            0    286.83325   -9614.4363   -53814.627            0    1928895.3    124.48095    124.48095    124.48095  0.049999655    15.908451    16.589759    25.908823  -0.34826112   -1.0716659    1.8388479 
    4000            8   0.32484164    13.844644    -57147.61   -57537.075    7.7453614    -57544.82    212.73981    384.21572    4994.6699            0    278.83678   -9600.7387   -53814.544            0    1928904.6    124.48115    124.48115    124.48115  0.049999415    12.630983    13.186569    15.716382   0.23814813   -1.2513236    1.3942022 
    5000           10   0.31908605    7.8571159   -57316.021   -57537.051     7.608128   -57544.659    207.48143    381.95014    4995.1966            0    271.61985    -9586.416   -53814.491            0    1928915.3    124.48138    124.48138    124.48138  0.049999138    9.1047123    9.4192216    5.0474137   0.67869351   -1.3616227    1.0117351 
    6000           12   0.37019998    1.7073464   -57488.993   -57537.024    8.8268631    -57545.85    200.55016    380.38283     4994.377            0    266.17606   -9572.8652   -53814.471            0    1928926.9    124.48163    124.48163    124.48163  0.049998838    5.1969538    5.1225911   -5.1975058    0.8527807   -1.3925597   0.74033893 
    7000           14   0.48181009   -4.7764502   -57671.356   -57536.987    11.488039   -57548.475    192.69126    379.20654    4992.2667            0    262.88455   -9561.0553   -53814.469            0    1928938.6    124.48188    124.48188    124.48188  0.049998533   0.41350126   -0.1509903   -14.591861   0.69915684   -1.3090768   0.59007812 
    8000           16   0.58838214   -11.938439    -57872.79    -57536.94    14.029089    -57550.97    185.07819    379.05628     4989.353            0    261.50819   -9551.5029   -53814.462            0    1928949.8    124.48212    124.48212    124.48212  0.049998243   -5.8372372   -6.8900089   -23.088072   0.23518761   -1.0866642   0.53363519 
    9000           18   0.64477011   -19.963603   -58098.504    -57536.89    15.373576   -57552.264     178.3016    380.47219    4986.4328            0     261.3497   -9544.3758   -53814.444            0    1928959.7    124.48233    124.48233    124.48233  0.049997987   -13.842925   -15.287583   -30.760302  -0.43865403  -0.76757395   0.51225152 
   10000           20   0.68139022   -28.599852   -58341.409   -57536.838    16.246727   -57553.085    172.27543    382.83203    4984.3888            0    261.52217   -9539.6724   -53814.431            0    1928967.4     124.4825     124.4825     124.4825  0.049997788   -23.274234    -24.95858   -37.566743   -1.1639438  -0.45122462   0.45721211 
   11000           22   0.76084313   -37.064492   -58579.484   -57536.783    18.141163   -57554.924    167.12375    384.63263    4983.9322            0    261.26294   -9537.4075   -53814.468            0    1928971.9     124.4826     124.4826     124.4826   0.04999767   -33.110061   -34.842416   -43.240999   -1.7732437  -0.21468491   0.32137313 
   12000           24   0.89771758   -44.147732   -58778.688    -57536.72    21.404729   -57558.125    163.74162    384.89632    4985.3847            0    260.19353   -9537.7245   -53814.617            0    1928972.4    124.48261    124.48261    124.48261  0.049997657   -41.804199   -43.356316    -47.28268   -2.1439789 -0.051216814   0.10304855 
   13000           26    1.0424034   -48.469278   -58900.186   -57536.647    24.854546   -57561.501    163.15866    384.15528    4988.5656            0    258.43433   -9540.8841   -53814.931            0    1928968.1    124.48251    124.48251    124.48251  0.049997768   -47.629476    -48.76894   -49.009416   -2.2324819   0.10006988  -0.15221333 
   14000           28    1.1428169   -48.845059   -58910.664   -57536.561    27.248755   -57563.809    165.49111    383.91493    4992.8157            0    256.53523   -9547.1333   -53815.433            0    1928958.5    124.48231    124.48231    124.48231  0.049998016   -49.134689   -49.699875   -47.700614   -2.0782999   0.27696615  -0.37230974 
   15000           30    1.2033626   -44.691304   -58793.706   -57536.465    28.692377   -57565.157    169.87272    385.16553    4997.1582            0    255.25807   -9556.5197   -53816.092            0    1928943.7    124.48199    124.48199    124.48199  0.049998402   -45.620048   -45.580201   -42.873662    -1.784011     0.465359  -0.49295505 
   16000           32     1.273607   -36.316688       -58558   -57536.361    30.367249   -57566.729    175.45735     387.5071    5000.5558            0    255.29833   -9568.7236   -53816.824            0    1928923.9    124.48156    124.48156    124.48156  0.049998913   -37.450515   -36.901866   -34.597683     -1.47804   0.64149521  -0.48261709 
   17000           34    1.3902349   -24.934331   -58237.671   -57536.243    33.148064   -57569.391     182.1452      389.727    5002.1959            0    257.04076   -9582.9949   -53817.505            0    1928900.2    124.48105    124.48105    124.48105  0.049999527   -26.025525   -25.132137   -23.645332   -1.2716226   0.81431211  -0.35392752 
   18000           36    1.5436946   -12.341289   -57883.272   -57536.104    36.807082   -57572.911    190.08162    391.12016    5001.7228            0    260.41718   -9598.2382   -53818.015            0    1928873.8    124.48049    124.48049    124.48049  0.050000212   -13.368006    -12.30856   -11.347302   -1.2189739     1.001185  -0.16253428 
   19000           38    1.6968507  -0.39275601   -57546.991   -57535.942    40.458858   -57576.401    198.68656    392.14844    4999.3459            0    264.89911   -9613.2088   -53818.272            0    1928846.1    124.47989    124.47989    124.47989  0.050000932   -1.4981844  -0.45032243   0.77023884   -1.2968681    1.1728761  0.010536413 
   20000           40    1.8202985    9.4917554   -57268.756   -57535.757    43.402287    -57579.16    206.64229    393.81289    4995.7877            0    269.62452   -9626.7531   -53818.274            0    1928818.2    124.47929    124.47929    124.47929  0.050001654    8.1206008    8.9929885    11.361677   -1.4186447     1.249857  0.088091123 
   21000           42    1.9067814    16.608499   -57068.368   -57535.556    45.464341   -57581.021    212.95278    396.44971    4992.0869            0    273.62529   -9638.0357     -53818.1            0    1928791.4    124.47871    124.47871    124.47871   0.05000235    14.866801    15.461223    19.497471   -1.4761693    1.1730634  0.030252893 
   22000           44    1.9671727    20.998876   -56944.665   -57535.344    46.904282   -57582.248    217.68833    399.21138     4989.313            0    276.09192   -9646.6577   -53817.895            0    1928766.3    124.47817    124.47817    124.47817     0.050003    18.949083    19.286654    24.760891   -1.3857459   0.96351481  -0.14758251 
   23000           46     2.025463    23.253853    -56881.02   -57535.122    48.294127   -57583.416    221.41688    400.78236    4988.2769            0    276.59543   -9652.6588   -53817.829            0    1928743.5    124.47768    124.47768    124.47768  0.050003591    21.148678    21.373812    27.239069   -1.1207427   0.70453208  -0.38254414 
   24000           48     2.110047    24.152821   -56855.509    -57534.89    50.310906   -57585.201    224.07954    400.64427    4989.3187            0    275.19466   -9656.3967   -53818.042            0    1928723.2    124.47724    124.47724    124.47724  0.050004117    22.381297     22.68276    27.394407  -0.72036645   0.47147175  -0.59250204 
   25000           50    2.2326122    24.224463   -56853.255   -57534.646    53.233288   -57587.879    224.79643     399.6503    4992.2266            0    272.39468   -9658.3501   -53818.597            0    1928705.5    124.47686    124.47686    124.47686  0.050004576    23.181123    23.694389    25.797877   -0.2841619    0.2973594  -0.70616537 
   26000           52    2.3719059    23.406506   -56876.007   -57534.385    56.554537   -57590.939    222.81314    399.33855     4996.309            0    268.97431   -9658.9181   -53819.456            0    1928690.5    124.47654    124.47654    124.47654  0.050004966    23.321655    24.080069    22.817793  0.048073197   0.20168333   -0.6825818 
   27000           54    2.4908821    20.995791   -56943.542   -57534.107    59.391347   -57593.498    218.28391    400.65685    5000.5979            0     265.7468   -9658.2951   -53820.489            0    1928677.9    124.47627    124.47627    124.47627  0.050005291    21.797794    22.742598     18.44698   0.13658258   0.21949118   -0.5244082 
   28000           56      2.57792    15.959425   -57084.914   -57533.815    61.466635   -57595.281    211.89563    403.34412    5004.1274            0    263.33355   -9656.4714   -53821.511            0    1928667.7    124.47605    124.47605    124.47605  0.050005557     17.24417    18.244099    12.390005  -0.10884003   0.37321069  -0.27883861 
   29000           58    2.6611792    7.4710831    -57323.37   -57533.513    63.451826   -57596.965    203.99654    406.51388    5006.2062            0      262.016   -9653.3505   -53822.347            0    1928659.1    124.47587    124.47587    124.47587  0.050005779    8.6059892    9.4637832    4.3434769  -0.68250982   0.62101097 -0.026579946 
   30000           60    2.7688706   -4.5821686   -57662.083   -57533.198    66.019565   -57599.218    194.56793    409.71579    5006.6057            0    261.69665   -9648.9149   -53822.889            0    1928651.3     124.4757     124.4757     124.4757  0.050005981   -4.2574954   -3.7775924   -5.7114181   -1.4785263   0.86071212   0.14778048 
   31000           62    2.8814189   -19.336216   -58076.744   -57532.869     68.70311   -57601.572    184.11353    413.25875    5005.6051            0    261.96628    -9643.389   -53823.127            0      1928643    124.47552    124.47552    124.47552  0.050006197   -20.283485   -20.375067   -17.350095   -2.3288415    1.0015994   0.19637845 
   32000           64    2.9453824   -34.993176   -58516.785   -57532.527    70.228225   -57602.756     174.1269    417.43717    5003.8823            0    262.25032   -9637.2999   -53823.152            0    1928632.5    124.47529    124.47529    124.47529  0.050006469     -37.2908   -38.009363   -29.679365   -3.0598724    1.0228924   0.12619787 
   33000           66    2.9449492   -49.157734    -58914.84   -57532.185    70.217896   -57602.403    166.27309    421.61247    5002.2897            0     261.9956   -9631.4455   -53823.128            0    1928618.2    124.47499    124.47499    124.47499  0.050006839     -52.4081   -53.639211   -41.425892   -3.5358769   0.96089045 -0.0081701018 
   34000           68    2.9417044   -59.403821   -59202.676   -57531.847    70.140527   -57601.987    161.19242    424.37427    5001.5842            0    260.85332   -9626.7638   -53823.228            0    1928598.6    124.47456    124.47456    124.47456  0.050007348    -62.77705   -64.291152    -51.14326   -3.6811077   0.85138791  -0.13951571 
   35000           70    3.0181141   -63.953285    -59330.28   -57531.514    71.962402   -57603.476    158.44147    424.82298    5002.1969            0    258.81031    -9624.169   -53823.579            0    1928572.5      124.474      124.474      124.474  0.050008025   -66.383572   -67.921932    -57.55435    -3.486451   0.70862319  -0.21482821 
   36000           72    3.1802167   -62.235011   -59281.574   -57531.166    75.827495   -57606.994     157.6136    423.64607    5004.1098            0    256.22285   -9624.3707   -53824.215            0    1928539.5    124.47329    124.47329    124.47329  0.050008881   -62.736781   -64.054979   -59.913273   -3.0078499   0.55635493  -0.21169746 
   37000           74    3.3397463   -55.085392   -59080.088   -57530.801    79.631239   -57610.433    159.09452    422.71631    5006.8756            0    253.73272   -9627.7829   -53825.069            0    1928499.7    124.47244    124.47244    124.47244  0.050009912   -53.076363   -53.960566   -58.219247   -2.3551381   0.45056906  -0.13846982 
   38000           76    3.4097002   -44.455726   -58780.715   -57530.418    81.299186   -57611.718    163.39616    423.48834    5009.7712            0    252.09355   -9634.4732   -53825.994            0    1928453.9    124.47145    124.47145    124.47145  0.050011099   -39.964583   -40.272218   -53.130378   -1.6695022   0.44311649 -0.031806782 
   39000           78    3.4062253   -32.769361   -58451.623   -57530.025    81.216331   -57611.241     169.9704    425.83149    5012.0403            0    251.97516   -9644.2343   -53826.824            0    1928403.3    124.47036    124.47036    124.47036  0.050012412   -26.451233   -26.187585   -45.669266   -1.0890335   0.52714726  0.056953547 
   40000           80    3.4322973   -22.196036   -58153.838   -57529.619    81.837979   -57611.457      177.189    428.53379     5013.146            0    253.80851      -9656.7   -53827.434            0    1928349.1     124.4692     124.4692     124.4692  0.050013819    -15.17222   -14.526328   -36.889561  -0.71609691   0.63996849  0.084296031 
   41000           82    3.5576338   -14.099511   -57925.704   -57529.196    84.826441   -57614.022    183.67857     430.8991    5012.9563            0    257.69571   -9671.4634   -53827.788            0    1928292.4    124.46798    124.46798    124.46798   0.05001529   -7.6893073   -6.9598677   -27.649358  -0.59776654   0.73363099  0.041572465 
   42000           84    3.7375464   -8.7767488   -57775.558   -57528.744    89.116186   -57617.861    189.39143    433.63545    5011.7998            0    263.37931   -9688.1152   -53827.951            0    1928234.1    124.46672    124.46672    124.46672  0.050016801   -4.1938791   -3.6439214   -18.492446  -0.72190512   0.82770729  -0.03632889 
   43000           86     3.868254   -5.5214818   -57683.534   -57528.267    92.232713     -57620.5    195.10543    438.02513    5010.3739            0    270.26418   -9706.1969   -53828.071            0    1928174.8    124.46545    124.46545    124.46545  0.050018339   -3.5985095   -3.3429354   -9.6230003   -1.0226948   0.98156756 -0.089545102 
   44000           88    3.9095229   -2.9978859   -57612.071   -57527.771    93.216709   -57620.988    201.07202    444.32484    5009.5322            0    277.49842   -9725.0885   -53828.327            0    1928114.9    124.46416    124.46416    124.46416  0.050019893   -4.0014386   -4.0004594  -0.99175984    -1.396881    1.2215515  -0.06824011 
   45000           90    3.9249079   0.14900307   -57523.078   -57527.268    93.583541   -57620.852    206.57027    451.22247    5010.0166            0    284.12111   -9743.9184   -53828.864            0    1928054.7    124.46286    124.46286    124.46286  0.050021456   -3.4510234   -3.5651995    7.4632321   -1.7337894    1.5155894  0.043454606 
   46000           92    3.9957182    4.6658893    -57395.56   -57526.754    95.271904   -57622.026    210.82326    456.95461    5012.2146            0    289.25914   -9761.5414   -53829.736            0    1927994.4    124.46156    124.46156    124.46156  0.050023019   -0.7497392  -0.78340768    15.530815   -1.9484267    1.8198669    0.2244464 
   47000           94    4.1214595    10.319583   -57236.067   -57526.222    98.270018   -57624.492    213.89365    460.80348    5016.0162            0    292.32155   -9776.6404   -53830.887            0    1927934.7    124.46028    124.46028    124.46028  0.050024568     4.053745    4.3326265    22.572377   -1.9983561    2.1180766   0.42801467 
   48000           96    4.2299389    15.962178   -57076.871   -57525.665    100.85655   -57626.522     216.2825    463.33663    5020.8145            0    293.12639   -9787.9264   -53832.155            0    1927876.1    124.45902    124.45902    124.45902  0.050026089    9.7218363    10.530219    27.634478   -1.8847544    2.3941518   0.59488882 
   49000           98    4.2774076    19.972617   -56963.554    -57525.09    101.98837   -57627.078    217.81232    465.27281    5025.6554            0    291.91794   -9794.4026   -53833.334            0    1927819.2    124.45779    124.45779    124.45779  0.050027566    14.359357    15.796585     29.76191   -1.6454804    2.5869871   0.66520781 
   50000          100    4.3082033    20.846964   -56938.407   -57524.508    102.72264   -57627.231    217.40967    466.42459    5029.4984            0    289.27468   -9795.6061   -53834.232            0    1927764.4    124.45661    124.45661    124.45661  0.050028988    16.133646    18.098399    28.308847   -1.3495276    2.6020658   0.59853971 
   51000          102    4.4004613    17.708431   -57026.068   -57523.918     104.9224    -57628.84    214.19314    465.99535     5031.514            0     285.9409   -9791.7475   -53834.736            0    1927711.8    124.45548    124.45548    124.45548  0.050030352    13.899266    16.102023    23.124004   -1.0903223    2.3913143    0.3934918 
   52000          104    4.5691257    10.599011   -57225.339   -57523.309    108.94395   -57632.253    208.48448     463.8705    5031.3319            0    282.62661   -9783.7193   -53834.847            0    1927661.1    124.45439    124.45439    124.45439  0.050031667    7.5619911     9.632336    14.602706  -0.96614876     2.013326  0.096423671 
   53000          106    4.7458516   0.50728648   -57508.421   -57522.682    113.15771    -57635.84    201.45105    461.34504    5029.1602            0     279.8239   -9772.9399    -53834.68            0    1927611.6    124.45333    124.45333    124.45333  0.050032954   -1.8607433  -0.26339266    3.6459954   -1.0431753     1.595753  -0.21594481 
   54000          108    4.8553364   -10.889797   -57828.169    -57522.04    115.76821   -57637.808    193.92557    460.31406    5025.7399            0    277.69042   -9761.0511   -53834.427            0      1927562    124.45226    124.45226    124.45226   0.05003424   -12.526929   -11.659302     -8.48316   -1.3162215    1.2445102  -0.47226118 
   55000          110    4.8930119   -21.738452   -58132.479   -57521.395    116.66653   -57638.061     186.0054    461.64307    5022.1458            0    276.04156   -9749.5978   -53834.299            0    1927511.3    124.45117    124.45117    124.45117  0.050035557   -22.378549    -22.39216   -20.444646   -1.7030204   0.99796607  -0.63344495 
   56000          112    4.9184182   -30.597075   -58380.834    -57520.75     117.2723   -57638.023    177.87149    464.36971    5019.4945            0    274.46331    -9739.763   -53834.459            0    1927458.1    124.45002    124.45002    124.45002  0.050036936   -29.863693   -30.767657   -31.159875   -2.0775539   0.86251898   -0.6990333 
   57000          114    4.9854701   -36.842954   -58555.731   -57520.105    118.87105   -57638.977    170.52118    466.57299    5018.6444            0    272.51381   -9732.2574   -53834.971            0    1927401.7    124.44881    124.44881    124.44881  0.050038402   -34.441708   -36.058074    -40.02908   -2.3241395   0.85494117  -0.69262029 
   58000          116    5.0958631   -40.707251   -58663.662    -57519.45    121.50321   -57640.954    165.21779    467.06693    5019.9715            0    269.94298   -9727.3576   -53835.795            0    1927341.2    124.44751    124.44751    124.44751  0.050039971   -36.622752   -38.604299   -46.894702   -2.3777609   0.97773726  -0.64605879 
   59000          118    5.2170725   -42.971363   -58726.592   -57518.781    124.39327   -57643.175    162.28645    466.28723    5023.2798            0     266.8477   -9725.0754     -53836.8            0    1927276.3    124.44611    124.44611    124.44611  0.050041657   -37.571006   -39.522742   -51.820342   -2.2383545    1.1669627   -0.5883987 
   60000          120     5.326017     -44.5098   -58769.107   -57518.099    126.99088    -57645.09    160.89504    465.61334    5027.8654            0    263.70279   -9725.3478   -53837.819            0    1927206.7    124.44461    124.44461    124.44461  0.050043464   -38.522622   -40.142838   -54.863939   -1.9625923    1.3015911  -0.53978541 
   61000          122    5.4250603   -45.885907    -58807.04   -57517.405    129.35242   -57646.758     160.2079    465.94348    5032.7175            0    261.25536   -9728.1823     -53838.7            0    1927132.3    124.44301    124.44301    124.44301  0.050045398   -40.273502   -41.422406   -55.961814   -1.6451781    1.2923819  -0.50363257 
   62000          124    5.5275468   -47.101749   -58840.452     -57516.7    131.79606   -57648.496    160.45488    466.99073     5036.799            0    260.31645    -9733.705   -53839.352            0    1927052.8     124.4413     124.4413     124.4413  0.050047462   -42.863446   -43.533609   -54.908192   -1.3929972    1.1539925  -0.46421255 
   63000          126    5.6441331   -47.546851   -58852.183   -57515.981    134.57589   -57650.556    162.54543    467.90938    5039.3287            0    261.51208   -9742.0849   -53839.767            0    1926968.1    124.43948    124.43948    124.43948  0.050049661   -45.496447   -45.760921   -51.383186   -1.2896896   0.97647576  -0.39421571 
   64000          128    5.7808746   -46.181066   -58813.005   -57515.246    137.83628   -57653.082    166.78855    468.46185    5039.9843            0    265.06159   -9753.3677   -53840.011            0    1926878.3    124.43754    124.43754    124.43754  0.050051994   -46.746422   -46.734119   -45.062659   -1.3635043      0.83671  -0.27291748 
   65000          130    5.9344138   -41.940389   -58693.017   -57514.486    141.49719   -57655.983     172.4461    469.41265    5038.9679            0    270.64518    -9767.264   -53840.191            0    1926783.4     124.4355     124.4355     124.4355  0.050054458   -45.048485   -44.921195   -35.851487   -1.5710513   0.75152174  -0.10067759 
   66000          132    6.0843459   -34.237592   -58475.727   -57513.695     145.0721   -57658.767    178.67342    471.66344    5036.9173            0    277.40859   -9783.0154   -53840.414            0      1926684    124.43336    124.43336    124.43336  0.050057041   -39.337075   -39.220005   -24.155695   -1.8101781   0.71418356  0.097963689 
   67000          134    6.2050952   -23.312758   -58167.894   -57512.871    147.95118   -57660.822     185.5021    474.99005    5034.6952            0     284.1262   -9799.3868   -53840.749            0    1926580.9    124.43114    124.43114    124.43114  0.050059721    -29.52652   -29.414697   -10.997056     -1.95623   0.73854311   0.28582585 
   68000          136    6.2974838   -10.258708   -57800.236   -57512.011    150.15405   -57662.165    193.48482    477.76431    5033.1252            0    289.49999   -9814.8365   -53841.203            0    1926475.2    124.42887    124.42887    124.42887  0.050062467   -16.614051   -16.333445    2.1713727   -1.9070775    0.8373194   0.43038313 
   69000          138    6.3987935    3.2663711    -57419.35   -57511.116    152.56963   -57663.685    202.47466    478.13296    5032.7519            0    292.51727   -9827.8287   -53841.733            0    1926368.4    124.42657    124.42657    124.42657  0.050065242   -2.3826258   -1.6643933    13.846132   -1.6204729   0.96758655   0.51821255 
   70000          140    6.5430395     15.47099   -57075.559   -57510.179    156.00896   -57666.188    211.20029    475.60424    5033.6965            0     292.7478     -9837.17   -53842.267            0    1926261.9    124.42427    124.42427    124.42427   0.05006801    11.092332    12.481844    22.838794   -1.1331441     1.034349   0.55661195 
   71000          142    6.7116607    24.826215   -56811.807   -57509.201    160.02948    -57669.23     218.2104    471.45213     5035.643            0    290.46482   -9842.2686   -53842.732            0    1926157.1    124.42202    124.42202    124.42202  0.050070735    21.928907    24.094539    28.455199   -0.5537176   0.96895498   0.56596133 
   72000          144    6.8447974    30.344618    -56655.82   -57508.186    163.20392    -57671.39     222.9163    467.49759    5037.9575            0    286.53798   -9843.2134   -53843.086            0    1926054.9    124.41982    124.41982    124.41982  0.050073392    28.810467    31.699076     30.52431 -0.027914402   0.80052762   0.56892945 
   73000          146     6.915273    31.711481   -56616.437   -57507.152    164.88431   -57672.037    225.39328    464.53367       5039.9            0    282.14241   -9840.6768   -53843.329            0    1925955.9    124.41768    124.41768    124.41768  0.050075965    31.201059     34.59362    29.339764   0.31088526   0.62549839   0.57737652 
   74000          148    6.9775685    29.239594   -56684.865   -57506.109    166.36965   -57672.479     225.3747    462.04766    5040.8669            0    278.39592   -9835.6594   -53843.504            0    1925860.4    124.41563    124.41563    124.41563  0.050078449    29.337546    32.843868    25.537368   0.38634662     0.520155   0.58723837 
   75000          150     7.118056    23.630183   -56841.394   -57505.056    169.71937   -57674.775    222.01218    459.45364    5040.5872            0    276.04196   -9829.1941   -53843.676            0      1925768    124.41364    124.41364    124.41364  0.050080852    23.966218     27.06927    19.855061   0.19992343   0.49314635   0.58612142 
   76000          152    7.3521968    15.641653     -57064.7    -57503.98     175.3021   -57679.283    214.89154     457.3243    5039.2127            0    275.25725   -9822.0629   -53843.905            0    1925678.1     124.4117     124.4117     124.4117  0.050083189    15.944803    18.134995    12.845162  -0.18678562   0.52606844   0.56746251 
   77000          154    7.5935045    5.8503506   -57338.583   -57502.877    181.05572   -57683.933    204.98044     457.0568    5037.2734            0    275.62101   -9814.6361   -53844.229            0    1925589.9     124.4098     124.4098     124.4098  0.050085483    5.9368256    6.9075315    4.7066948  -0.67801646    0.6211336   0.53642946 
   78000          156     7.743917   -5.3573277   -57652.197   -57501.755    184.64208   -57686.397    194.16327    459.19182     5035.513            0    276.25307   -9806.8724   -53844.646            0    1925502.3    124.40792    124.40792    124.40792  0.050087761   -5.6107537   -5.8406043   -4.6206252   -1.1749565   0.78121862   0.50540444 
   79000          158    7.8050103   -17.596555   -57994.747   -57500.633    186.09876   -57686.732    183.86104    462.27407    5034.6543            0     276.0995   -9798.4941   -53845.126            0    1925414.1    124.40602    124.40602    124.40602  0.050090056   -18.256545    -19.36568   -15.167441   -1.5917396   0.95243866   0.48642275 
   80000          160    7.8741492    -30.26342   -58349.277   -57499.514    187.74727   -57687.262    174.43346    463.71995     5035.166            0     274.2987   -9789.2542   -53845.626            0      1925324    124.40408    124.40408    124.40408  0.050092401   -31.319106    -32.81291   -26.658243   -1.8700829    1.0231667   0.48530527 
   81000          162     8.026295   -42.438514   -58689.964   -57498.396    191.37496   -57689.771    165.97213    461.97602    5037.1002            0    270.51092   -9779.2297   -53846.101            0    1925230.6    124.40206    124.40206    124.40206  0.050094832    -43.78452   -45.126645   -38.404376   -1.9944201   0.91390436    0.5034434 
   82000          164    8.2258894   -52.933935   -58983.442   -57497.265    196.13399   -57693.399    159.21485    457.74838      5040.05            0    265.07813   -9768.9663   -53846.524            0    1925132.5    124.39995    124.39995    124.39995  0.050097383    -54.37252     -55.0803   -49.348984   -1.9903642   0.65373524   0.53998835 
   83000          166    8.3784063   -60.465472   -59193.666   -57496.124    199.77053   -57695.894    155.22423    453.04714    5043.2454            0    258.94009   -9759.4638   -53846.887            0    1925028.7    124.39772    124.39772    124.39772  0.050100084   -61.726671   -61.457923   -58.211821   -1.9076981   0.36002734   0.58840328 
   84000          168    8.4556752   -63.913669   -59289.222   -57494.976    201.61289   -57696.589    154.27348    449.18552    5045.7634            0    253.34599   -9751.9588   -53847.199            0    1924918.4    124.39534    124.39534    124.39534  0.050102956   -64.681511   -63.338123   -63.721373   -1.7951787   0.13799719   0.63194083 
   85000          170    8.5352466    -62.65362   -59252.589   -57493.824    203.51015   -57697.334    155.54523    445.94829    5046.7964            0    249.48585   -9747.6364   -53847.473            0    1924801.1    124.39281    124.39281    124.39281  0.050106009   -62.614049   -60.399675   -64.947137   -1.6823931  0.022056912   0.64436489 
   86000          172    8.7033192   -56.835893   -59088.002    -57492.65    207.51759   -57700.168    158.14339    442.67432    5045.8993            0    248.16873   -9747.3327   -53847.721            0    1924677.1    124.39014    124.39014    124.39014  0.050109238   -55.760251   -53.110047   -61.637381   -1.5806371  0.006586058   0.60749414 
   87000          174    8.9440963   -47.449299   -58823.218   -57491.433    213.25856   -57704.692     162.0743    439.74794    5043.1417            0    249.62441   -9751.3368   -53847.943            0    1924546.8    124.38733    124.38733    124.38733  0.050112628   -45.296966   -42.693506   -54.357425   -1.4937544  0.099089412    0.5254071 
   88000          176      9.15546   -36.070141   -58502.488   -57490.159    218.29821   -57708.458    167.85887    438.58378    5039.1139            0    253.45843   -9759.3352   -53848.137            0    1924411.5    124.38442    124.38442    124.38442  0.050116153   -33.064685   -30.842657    -44.30308   -1.4211251    0.3046127   0.42339091 
   89000          178    9.2718291   -24.393377   -58173.399   -57488.834    221.07285   -57709.907    175.32646    440.03568    5034.7829            0    258.76368   -9770.5071   -53848.309            0    1924272.2    124.38142    124.38142    124.38142   0.05011978   -21.021413   -19.271204   -32.887516   -1.3547849   0.56741621   0.33679043 
   90000          180    9.3420584    -13.77174    -57873.93   -57487.475    222.74736   -57710.222    183.30817    443.08263    5031.2364            0    264.36834   -9783.7366   -53848.481            0    1924130.3    124.37836    124.37836    124.37836  0.050123477   -10.688648   -9.2712282   -21.355345   -1.2820361   0.77104483   0.29710784 
   91000          182    9.4681796   -4.9399051   -57624.687   -57486.076    225.75454   -57711.831    190.73168    445.42672    5029.3897            0    269.16488   -9797.8462   -53848.698            0    1923986.8    124.37527    124.37527    124.37527  0.050127214   -2.8184031   -1.4293151   -10.571997   -1.1883235   0.82032925   0.32235294 
   92000          184    9.6831117    2.0244643   -57427.831   -57484.632    230.87927   -57715.511     197.6552    445.51288    5029.7338            0    272.42444   -9811.8247   -53849.013            0    1923842.8    124.37217    124.37217    124.37217  0.050130966    2.6566333    4.4032653  -0.98650573   -1.0622204   0.72741841   0.41563266 
   93000          186    9.9161753    7.5587741   -57271.073   -57483.136    236.43632   -57719.572    204.78477    443.85762    5032.1964            0    273.98246   -9824.9179   -53849.476            0    1923699.1    124.36907    124.36907    124.36907  0.050134713    6.4422553    8.8997296    7.3343375  -0.89439421   0.58931946   0.55760607 
   94000          188    10.081692    12.319618   -57135.993   -57481.596    240.38283   -57721.979    212.05067    442.31192    5036.1509            0    274.21669   -9836.6043   -53850.105            0    1923556.1    124.36599    124.36599    124.36599  0.050138439    9.5061717    12.862108    14.590575  -0.67221184    0.4963029    0.7079202 
   95000          190    10.176953     16.78385   -57009.221   -57480.025    242.65418   -57722.679     218.1275    442.12975    5040.5757            0    273.82959   -9846.4663   -53850.876            0    1923414.5    124.36293    124.36293    124.36293  0.050142131    12.581789    16.773233    20.996528  -0.39130158   0.47332228   0.82315942 
   96000          192    10.275868    20.881907   -56892.714    -57478.43    245.01266   -57723.443    221.56195    442.90543    5044.3232            0    273.53804   -9854.0597   -53851.712            0    1923274.7    124.35992    124.35992    124.35992  0.050145775    15.720385    20.468477    26.456859  -0.07151734   0.51213329   0.87721899 
   97000          194    10.440231    23.877848   -56807.103   -57476.804    248.93166   -57725.736    222.05188    443.33257    5046.4271            0    273.79334   -9858.8402   -53852.501            0    1923137.2    124.35696    124.35696    124.35696  0.050149361    18.157376    23.095319    30.380851    0.2386592   0.61925526   0.87465578 
   98000          196    10.661574    24.609942   -56784.956   -57475.142    254.20924   -57729.351    220.27218     442.7353    5046.3632            0     274.6146   -9860.2109   -53853.126            0    1923002.2    124.35405    124.35405    124.35405   0.05015288     18.60779    23.412329    31.809706    0.4728557   0.79814994   0.83948179 
   99000          198    10.889831    21.996766    -56856.59   -57473.447    259.65169   -57733.099    216.65027    441.65751    5044.1844            0    275.57366   -9857.6623   -53853.503            0    1922869.9     124.3512     124.3512     124.3512   0.05015633    15.869267    20.324287    29.796744   0.57867916   0.98760949   0.79557118 
  100000          200    11.094424    15.550747   -57035.661   -57471.722     264.5299   -57736.252    210.88726    440.99532    5040.4914            0    275.93344    -9850.947   -53853.612            0      1922740     124.3484     124.3484     124.3484  0.050159719    9.4117785     13.42793    23.812532   0.53873535    1.0647058   0.75394664 
  101000          202    11.282073    5.6610093   -57311.249    -57469.98    269.00409   -57738.984    202.89122    440.75773    5036.2476            0    274.90246   -9840.2696   -53853.514            0    1922611.8    124.34563    124.34563    124.34563  0.050163065   -0.3135549    3.3222507    13.974332   0.37899911   0.93381654   0.71568794 
  102000          204    11.468455   -6.4157529   -57648.105   -57468.224    273.44809   -57741.672    193.73596    439.85761    5032.4972            0    271.92571   -9826.3601   -53853.328            0    1922484.2    124.34288    124.34288    124.34288  0.050166395   -11.905333   -8.4351528    1.0932267   0.15751533   0.61936701   0.67627075 
  103000          206    11.654947   -18.830701   -57994.391   -57466.461    277.89473   -57744.356    185.16274    437.16766    5030.0706            0    266.91057   -9810.4603   -53853.207            0    1922355.8    124.34011    124.34011    124.34011  0.050169744   -23.340311   -19.722978   -13.428814 -0.044164623   0.24926706   0.62502407 
  104000          208    11.834758   -29.609461   -58294.753   -57464.691    282.18204   -57746.873     178.1521    432.73521    5029.3636            0    260.30729   -9794.1434   -53853.287            0    1922225.5     124.3373     124.3373     124.3373  0.050173145   -32.520384   -28.492946   -27.815053  -0.14283876 -0.047087151   0.54002818 
  105000          210    12.004021   -37.228478   -58506.485   -57462.906    286.21786   -57749.124     172.4095    427.90852    5030.2482            0    253.02207   -9779.0679   -53853.644            0    1922092.1    124.33443    124.33443    124.33443  0.050176629    -37.94363   -33.436145   -40.305659 -0.083971476  -0.21110922   0.39762435 
  106000          212    12.158104   -41.110419   -58613.421   -57461.107    289.89174   -57750.999    167.38545    424.25063    5032.1384            0    246.20352   -9766.7101   -53854.267            0    1921954.6    124.33146    124.33146    124.33146  0.050180218   -39.269347    -34.44232   -49.619592   0.13269636  -0.23237086   0.19554096 
  107000          214    12.290843   -41.790814   -58630.589    -57459.29     293.0567   -57752.346    163.36784     422.3222    5034.1885            0    240.97685   -9758.1399   -53855.062            0    1921812.7     124.3284     124.3284     124.3284  0.050183922   -37.473878   -32.638411   -55.260152   0.44480538  -0.10211294 -0.033176169 
  108000          216    12.412623   -40.635759   -58596.291   -57457.452    295.96036   -57753.412    161.13551    421.51233    5035.5654            0    238.19937   -9753.9385   -53855.886            0    1921666.4    124.32525    124.32525    124.32525  0.050187743   -34.455268   -29.971568   -57.480441     0.754856   0.17416365  -0.22573907 
  109000          218    12.560624   -39.221782   -58554.713   -57455.588    299.48922   -57755.077    160.72934    421.02087     5035.712            0    238.28923   -9754.2306   -53856.598            0    1921515.7      124.322      124.322      124.322   0.05019168    -32.24701   -28.465518   -56.952817   0.96842503   0.52087808  -0.31637544 
  110000          220    12.767573   -38.677083   -58537.468   -57453.694    304.42363   -57758.118     161.1976    420.91999    5034.5208            0    241.15513   -9758.8023   -53857.109            0    1921360.8    124.31866    124.31866    124.31866  0.050195727   -32.213143   -29.433167   -54.384939    1.0301421   0.79621915  -0.26199244 
  111000          222    13.013898    -39.24492   -58551.358   -57451.764    310.29687   -57762.061    161.84561    422.12992     5032.362            0    246.23213   -9767.2146   -53857.416            0    1921201.7    124.31523    124.31523    124.31523  0.050199883    -34.53538   -32.927663   -50.271718   0.93393774   0.89145219 -0.051111863 
  112000          224    13.231698   -40.179085   -58575.468   -57449.796    315.48999   -57765.286    163.35522      425.275    5029.9565            0    252.61141   -9778.8848   -53857.599            0    1921038.4     124.3117     124.3117     124.3117   0.05020415   -38.107546   -37.621375   -44.808334   0.72403619   0.81938568   0.29156773 
  113000          226    13.376541   -39.960239   -58567.244   -57447.801    318.94354   -57766.744    167.16589    429.62974    5028.1357            0    259.23939   -9793.1182   -53857.797            0    1920870.8    124.30809    124.30809    124.30809  0.050208529   -40.823037   -41.167409   -37.890272   0.48251621   0.69520304   0.70639894 
  114000          228    13.487017   -36.788474   -58476.279   -57445.782    321.57769    -57767.36    173.78943     433.3834     5027.563            0    265.14891   -9809.0904   -53858.154            0      1920699    124.30438    124.30438    124.30438  0.050213021   -40.197077   -40.951663   -29.216682   0.31088604   0.63765666     1.108471 
  115000          230    13.647763   -29.270124   -58263.549   -57443.726    325.41042   -57769.136    182.19932    435.09386    5028.5029            0    269.66935   -9825.8373   -53858.764            0    1920523.4    124.30059    124.30059    124.30059  0.050217614   -34.239056   -35.026339   -18.544978   0.29609674   0.69794693    1.4119486 
  116000          232    13.887349   -17.084704   -57920.091   -57441.612      331.123   -57772.735    191.04543    434.85504    5030.7119            0    272.55271   -9842.2681   -53859.632            0    1920344.6    124.29674    124.29674    124.29674  0.050222288   -22.308182   -22.902803   -6.0431273   0.47578344   0.87811791    1.5639643 
  117000          234    14.136466   -1.3228929   -57476.464   -57439.418    337.06283   -57776.481    200.01559    433.91656    5033.4855            0    273.96879   -9857.2055   -53860.662            0    1920164.1    124.29284    124.29284    124.29284  0.050227009    -5.548263   -5.8902569    7.4698412   0.81771053    1.1743304    1.5610047 
  118000          236    14.308801    15.697336   -56997.601   -57437.142    341.17188   -57778.314    209.48462    433.16771    5035.8572            0    274.37536   -9869.5127   -53861.686            0    1919983.6    124.28895    124.28895    124.28895  0.050231731    13.339192    13.166179    20.586637    1.2324609    1.5630417    1.4422162 
  119000          238    14.411281     31.07778   -56564.672     -57434.8    343.61537   -57778.415    218.94904    432.20452    5036.8908            0    274.32512   -9878.2601   -53862.524            0    1919804.9    124.28509    124.28509    124.28509  0.050236408    30.896755      30.6747    31.661885     1.603557    1.9587718    1.2654129 
  120000          240    14.542152    42.155027   -56252.234   -57432.399    346.73579   -57779.135    226.46478     430.0816    5035.9804            0     274.2831   -9882.8978   -53863.047            0    1919629.5    124.28131    124.28131    124.28131  0.050240997    43.922932    43.307946    39.234204    1.8320888    2.2127111    1.0852962 
  121000          242    14.770895    47.172501   -56109.436   -57429.952    352.18982   -57782.142    230.02406    426.89238    5033.0617            0    274.49869   -9883.3943   -53863.224            0    1919458.8    124.27762    124.27762    124.27762  0.050245466    50.292339    48.894368    42.330796     1.868239    2.2112445   0.93987495 
  122000          244    15.048743    45.664068   -56149.278   -57427.457    358.81469   -57786.272    229.22321    424.24799     5028.664            0    274.94633   -9880.2128    -53863.14            0    1919293.2    124.27405    124.27405    124.27405  0.050249801    49.426137    46.932973    40.633094    1.7232282    1.9666129    0.8387764 
  123000          246     15.26805    38.490353   -56347.643   -57424.934    364.04375   -57788.977    225.17907    423.88721    5023.7825            0    275.33899   -9874.1925   -53862.973            0    1919132.5    124.27058    124.27058    124.27058  0.050254007    42.335102    38.595665    34.540293    1.4612134     1.598966   0.76044916 
  124000          248    15.400574    27.532333   -56651.875   -57422.403    367.20359   -57789.607    218.96895    425.84123    5019.6069            0    275.21734   -9866.3034   -53862.938            0    1918976.1     124.2672     124.2672     124.2672  0.050258103    31.249108    26.245635    25.102256     1.172117    1.2324224   0.66168126 
  125000          250     15.53784    15.068779   -56998.191   -57419.876    370.47647   -57790.353    210.74284    428.24822    5017.1868            0    274.10492   -9857.4152    -53863.22            0    1918822.8    124.26389    124.26389    124.26389   0.05026212    18.844312    12.623659    13.738367   0.94014531   0.92735043   0.50209117 
  126000          252    15.776238    3.0314771   -57332.517   -57417.344    376.16072   -57793.504    200.57347    429.14484    5017.1309            0    271.68992   -9848.1311   -53863.912            0    1918671.2    124.26062    124.26062    124.26062  0.050266092    7.3252947  -0.02613021    1.7952667   0.81708177   0.70571674   0.26645434 
  127000          254    16.088489   -7.5424633   -57625.822   -57414.787    383.60589   -57798.393    189.62044    428.31902    5019.4247            0    267.96808   -9838.7477   -53864.977            0      1918520    124.25736    124.25736    124.25736  0.050270053   -2.2460426   -10.561269   -9.8200779    0.8185825   0.60006826 -0.024626855 
  128000          256    16.345315   -16.608006   -57876.853   -57412.204     389.7295   -57801.934    179.74571    427.21702    5023.4196            0    263.28704   -9829.3412   -53866.262            0    1918368.1    124.25408    124.25408    124.25408  0.050274033   -10.057683   -19.058256   -20.708079   0.92658829   0.62769709  -0.32321068 
  129000          258    16.464648   -24.759949   -58102.268   -57409.603    392.57483   -57802.178    171.92719    427.09264    5027.9981            0    258.27846   -9819.9295   -53867.545            0    1918214.5    124.25076    124.25076    124.25076  0.050278058   -17.091644   -26.436423   -30.751781    1.1017364   0.72589364  -0.57087672 
  130000          260    16.506902   -32.682127   -58321.221   -57407.007    393.58232   -57800.589    165.59474    427.53165    5031.8755            0    253.71449    -9810.694   -53868.612            0    1918058.4    124.24739    124.24739    124.24739  0.050282151    -24.41789   -33.787555   -39.840935     1.294698   0.75388171  -0.71796834 
  131000          262     16.60323   -40.655809   -58541.586   -57404.419    395.87912   -57800.298    159.85385    426.99128    5033.9537            0    250.33915   -9802.1191   -53869.317            0    1917898.8    124.24394    124.24394    124.24394  0.050286334   -32.565117   -41.699462   -47.702848    1.4613967   0.59780751  -0.74845056 
  132000          264    16.808679   -48.277263   -58752.051   -57401.823    400.77774     -57802.6    155.01597    424.69842    5033.6272            0    248.70977   -9795.0218    -53869.63            0      1917735    124.24041    124.24041    124.24041   0.05029063   -41.146282   -49.822188   -53.863319    1.5790555   0.26930426  -0.68640945 
  133000          266    17.055783   -54.423741   -58921.202   -57399.202    406.66956   -57805.872    152.42233    421.75966    5030.9486            0    249.07024    -9790.432    -53869.64            0    1917566.1    124.23676    124.23676    124.23676   0.05029506   -48.802851   -56.817191   -57.651179     1.654239   -0.1115561  -0.59155388 
  134000          268     17.25119    -57.49585   -59004.329   -57396.562    411.32874   -57807.891     152.8491    420.25157    5026.6032            0    251.28223   -9789.3491   -53869.528            0    1917391.5    124.23299    124.23299    124.23299   0.05029964   -53.495616   -60.719468   -58.272465    1.7123999  -0.42472682  -0.53777555 
  135000          270    17.385569   -55.925948   -58957.617   -57393.896     414.5328   -57808.429    155.68193    421.26555    5021.7025            0    254.84513   -9792.4216   -53869.502            0    1917210.8    124.22909    124.22909    124.22909  0.050304379   -53.160206   -59.590548    -55.02709    1.7865352  -0.61280212  -0.58350904 
  136000          272     17.52754   -48.828907   -58756.348   -57391.197    417.91789   -57809.115    159.95117      423.939    5017.4624            0    259.01878   -9799.7507   -53869.736            0    1917024.4    124.22506    124.22506    124.22506  0.050309272   -46.541088   -52.282278   -47.663355    1.9008111  -0.64277106   -0.7542504 
  137000          274    17.727167   -36.478368   -58408.197   -57388.443     422.6777   -57811.121    165.73582    426.37237    5014.8631            0    263.02361   -9810.8064   -53870.309            0    1916832.9    124.22092    124.22092    124.22092  0.050314298    -33.81252    -38.98694   -36.635643    2.0633374   -0.4580293    -1.033245 
  138000          276    17.958063   -20.364936   -57954.855   -57385.611    428.18306   -57813.794    173.92456    427.36636    5014.3906            0    266.25779   -9824.5405   -53871.193            0    1916637.6     124.2167     124.2167     124.2167  0.050319423   -16.674076   -21.349916   -23.070816    2.2607412 -0.016223949   -1.3621371 
  139000          278    18.160342   -2.8066384   -57461.136   -57382.692    433.00612   -57815.698    184.58578    427.21843    5015.9268            0    268.46323   -9839.6279   -53872.265            0    1916440.4    124.21244    124.21244    124.21244  0.050324602     2.125844   -2.0915087   -8.4542504    2.4536311   0.62482289   -1.6502424 
  140000          280    18.315172    13.675983   -56997.496   -57379.691    436.69779   -57816.388     196.1451    426.97818    5018.8132            0    269.78918   -9854.7534   -53873.361            0      1916243    124.20818    124.20818    124.20818  0.050329785    19.557554    15.724376      5.74602    2.5947054    1.2909716   -1.8065602 
  141000          282    18.456735    26.959525   -56623.271   -57376.616    440.07316    -57816.69    206.52389    427.18763    5022.0653            0     270.7303   -9868.8665    -53874.33            0    1916047.3    124.20395    124.20395    124.20395  0.050334926    33.060123    29.488034    18.330418    2.6519919    1.8028257   -1.7819676 
  142000          284    18.622325    35.747733   -56374.666   -57373.486    444.02141   -57817.507    214.77576    427.50146    5024.6734            0    271.95012   -9881.3251   -53875.083            0    1915854.7    124.19979    124.19979    124.19979  0.050339987    41.087929    37.664254    28.491017    2.6274756    2.0924119   -1.5926189 
  143000          286    18.815372    39.778936   -56258.963   -57370.308    448.62431   -57818.932    221.13873    427.47167    5025.9031            0    274.03531   -9891.8672   -53875.614            0    1915666.1    124.19571    124.19571    124.19571  0.050344944    43.386735    40.062811    35.887263    2.5455025    2.2135229   -1.3025568 
  144000          288    19.019272    39.753021   -56256.577   -57367.091      453.486   -57820.577    225.62158    427.50322    5025.5028            0    277.24948    -9900.458   -53875.997            0    1915481.9    124.19173    124.19173    124.19173  0.050349785    40.925213    37.704877    40.628973    2.4249076    2.2420643  -0.98045845 
  145000          290    19.224374     36.95543   -56331.576   -57363.841    458.37635   -57822.218    227.22923    428.83133    5023.7568            0    281.36195   -9907.0464   -53876.351            0    1915302.2    124.18785    124.18785    124.18785   0.05035451    35.462134    32.339975    43.064181    2.2724003    2.2081542  -0.67561329 
  146000          292    19.427908    32.685539   -56447.656   -57360.568    463.22932   -57823.797    224.98768    432.38343    5021.3701            0    285.61714    -9911.363   -53876.793            0    1915126.6    124.18405    124.18405    124.18405  0.050359125    28.847445      25.7907    43.418472     2.097651    2.1285562  -0.42340773 
  147000          294    19.623726    27.768237   -56581.767   -57357.269     467.8983   -57825.167    219.37915    437.56049    5019.2239            0    288.88216   -9912.8199   -53877.393            0    1914954.8    124.18034    124.18034    124.18034  0.050363644    22.383052    19.381996    41.539664     1.930901    2.0632034  -0.26154488 
  148000          296    19.813991    22.378871   -56729.014   -57353.948    472.43489   -57826.383     212.1694    442.20451    5018.0833            0    289.95731    -9910.647    -53878.15            0    1914786.1    124.17669    124.17669    124.17669   0.05036808    16.528366    13.644045    36.964202     1.817726    2.0837166  -0.21314822 
  149000          298    20.025441     16.23073     -56897.4   -57350.607     477.4766   -57828.083    204.76809    444.00169     5018.347            0    287.96471   -9904.1642       -53879            0      1914620     124.1731     124.1731     124.1731  0.050372449    11.036414    8.3809975    29.274778    1.7851153    2.1814772  -0.25598744 
  150000          300    20.287983    8.9323235    -57097.85   -57347.244    483.73652    -57830.98    197.23389      442.162    5019.9153            0    282.67887   -9893.1305    -53879.84            0    1914455.9    124.16955    124.16955    124.16955  0.050376767    5.3350808    2.9945283    18.467361    1.8166466    2.2411773    -0.326093 
  151000          302    20.587283   0.31458731   -57335.061   -57343.844    490.87288   -57834.717    189.11971    437.84083    5022.2154            0    274.66544   -9877.9921   -53880.566            0      1914293    124.16603    124.16603    124.16603  0.050381056   -1.0809033   -3.0914139    5.1160791    1.8662816    2.1391301  -0.36465313 
  152000          304     20.85902   -9.3843857   -57602.387   -57340.416    497.35202   -57837.768    180.84174    432.95911    5024.3782            0    265.16418   -9859.9988   -53881.112            0    1914130.2    124.16251    124.16251    124.16251  0.050385339   -8.3661937      -10.097    -9.689963    1.8903721    1.8554066  -0.36625866 
  153000          306    21.053295   -19.457289   -57880.081   -57336.965    501.98423   -57838.949    173.61582    428.67134    5025.5147            0    255.75982   -9841.0408    -53881.47            0    1913966.7    124.15898    124.15898    124.15898  0.050389644   -16.173645   -17.712578   -24.485644    1.8581031    1.4789212  -0.37561065 
  154000          308    21.199395   -28.837613   -58138.391    -57333.51    505.46777   -57838.977    168.07788    425.02061     5025.009            0    247.96891   -9823.3607   -53881.693            0    1913801.3     124.1554     124.1554     124.1554  0.050393999   -23.694981   -25.174814   -37.643044    1.7467219    1.1087283  -0.43695788 
  155000          310      21.3807   -36.382281   -58345.416   -57330.046    509.79072   -57839.837    163.58697    421.95746    5022.7342            0     242.8825   -9809.1224   -53881.876            0      1913633    124.15176    124.15176    124.15176  0.050398431   -29.918975   -31.530849   -47.697019    1.5298501   0.77989725  -0.55036085 
  156000          312     21.63625   -41.264039   -58478.066   -57326.557    515.88392   -57842.441    159.28307      420.333    5019.1227            0    240.95285   -9800.0099   -53882.123            0    1913461.1    124.14804    124.14804    124.14804  0.050402959   -34.042834   -36.007411   -53.741872    1.1998394   0.49413656  -0.68569792 
  157000          314    21.910679   -43.256951   -58530.047   -57323.036    522.42725   -57845.463    155.50974    421.46626    5015.0643            0    241.95062   -9796.9394   -53882.515            0      1913285    124.14423    124.14423    124.14423  0.050407599   -35.800372   -38.285271    -55.68521   0.79035296   0.28318593  -0.82062209 
  158000          316    22.126503   -42.722817   -58511.467   -57319.472    527.57327   -57847.045    153.63685    425.57622    5011.6641            0    245.08307   -9799.9194   -53883.086            0    1913104.5    124.14033    124.14033    124.14033  0.050412354   -35.480468   -38.549968   -54.138016   0.38005651    0.1954266   -0.9524502 
  159000          318    22.293821    -40.33171   -58441.044   -57315.871    531.56272   -57847.433    154.47828    430.91638    5009.9296            0     249.2464    -9808.181   -53883.823            0    1912919.7    124.13633    124.13633    124.13633  0.050417224   -33.669448   -37.302373   -50.023309  0.060172419    0.2066735   -1.0788052 
  160000          320    22.509483   -36.697071   -58335.904   -57312.231    536.70485   -57848.936    157.44008     434.9149    5010.4767            0    253.35942   -9820.4521   -53884.675            0    1912730.9    124.13225    124.13225    124.13225  0.050422201   -30.886554   -35.037425   -44.167235  -0.10173625   0.19106495   -1.1834147 
  161000          322    22.832125   -32.127524   -58204.644    -57308.53    544.39775   -57852.928    161.54486    436.37691    5013.3386            0    256.68542   -9835.2988   -53885.575            0    1912538.4    124.12808    124.12808    124.12808  0.050427276   -27.346481   -31.955648   -37.080443 -0.078725259  0.013666328   -1.2536024 
  162000          324    23.188596   -26.558731   -58045.465   -57304.754    552.89728   -57857.651    166.88161    436.40906    5017.9291            0    259.02883    -9851.442   -53886.457            0    1912342.8    124.12385    124.12385    124.12385  0.050432434   -22.900979   -27.840686   -28.934528   0.11085323  -0.34618703   -1.3040208 
  163000          326    23.443031   -19.620373   -57848.054   -57300.907     558.9639   -57859.871     174.4138    436.98996    5023.1786            0    260.72893   -9867.9058   -53887.276            0    1912144.6    124.11956    124.11956    124.11956   0.05043766   -17.113251   -22.139576   -19.608293   0.40242058  -0.78287815   -1.3749772 
  164000          328    23.556745   -10.837167   -57599.184   -57297.003    561.67525   -57858.679    184.32957    438.73764    5027.8085            0    262.45811   -9884.0054   -53888.007            0    1911944.7    124.11524    124.11524    124.11524  0.050442934   -9.4490095   -14.241812   -8.8206804   0.69099618   -1.1655742   -1.5022666 
  165000          330    23.642261  0.027301602   -57292.295   -57293.056    563.71425    -57856.77    195.16137    440.36536    5030.6745            0    264.90955   -9899.2353   -53888.646            0      1911744     124.1109     124.1109     124.1109  0.050448231   0.39630534   -3.8758083    3.5614077   0.85543295   -1.4287676   -1.6934899 
  166000          332    23.837275    12.594803   -56937.928   -57289.045    568.36405   -57857.409    204.91184    440.39694    5031.0809            0     268.4871   -9913.0879   -53889.198            0    1911543.6    124.10656    124.10656    124.10656  0.050453519    12.114616    8.5488908    17.120901   0.80679278   -1.5583319   -1.9410589 
  167000          334    24.147338    25.678144    -56569.17   -57284.949    575.75705   -57860.706    212.72513    439.12016    5028.9744            0    273.09094    -9924.945   -53889.671            0    1911344.9    124.10226    124.10226    124.10226  0.050458764    24.579425    21.813308    30.641701   0.53119646   -1.5314174   -2.2428122 
  168000          336    24.447619    37.466964   -56236.475    -57280.76    582.91679   -57863.677    218.93253    438.48411     5024.958            0    278.06054   -9934.0395   -53890.072            0    1911149.3    124.09803    124.09803    124.09803  0.050463929      36.0202     34.09341    42.287281  0.090013542   -1.3263268   -2.5980422 
  169000          338    24.638893    46.037917    -55993.45   -57276.497    587.47743   -57863.975    223.56144    439.99586    5020.1228            0    282.30566   -9939.5467   -53890.414            0      1910958    124.09388    124.09388    124.09388   0.05046898    44.538285    43.429569    50.145897  -0.40882663  -0.99861659   -2.9847922 
  170000          340    24.765237    49.929918   -55880.816   -57272.196    590.48992   -57862.686    225.50948    442.95321    5015.7448            0    284.61288    -9940.785   -53890.721            0      1910772    124.08986    124.08986    124.08986  0.050473894    48.693766    48.278686    52.817302  -0.84879537  -0.70342413   -3.3566501 
  171000          342    24.953924    48.536875   -55915.432   -57267.864    594.98888   -57862.853    223.62576    444.99743    5012.9391            0    284.04662    -9937.428   -53891.034            0    1910591.5    124.08595    124.08595    124.08595   0.05047866     47.90134    47.945565    49.763719   -1.1255536  -0.60026921   -3.6710817 
  172000          344    25.260048    42.211842   -56087.416     -57263.5    602.28795   -57865.788    218.24271    444.40054    5012.3666            0    280.29748   -9929.6938   -53891.401            0    1910416.6    124.08216    124.08216    124.08216  0.050483282    42.508081    42.742992    41.384454   -1.1654572  -0.72508824    -3.912586 
  173000          346    25.609116    32.135572   -56363.835     -57259.1    610.61096   -57869.711      211.015    441.61492    5014.0734            0    273.82806   -9918.3734   -53891.868            0    1910246.5    124.07848    124.07848    124.07848  0.050487778    33.627844    33.849363    28.929509  -0.95345166  -0.97477346   -4.0858799 
  174000          348    25.898149     19.98597   -56697.929   -57254.669    617.50251   -57872.172     203.2098    438.52165    5017.5012            0    265.75502    -9904.696   -53892.464            0    1910080.1    124.07488    124.07488    124.07488  0.050492175    22.786164    22.906114    14.265633  -0.54813285   -1.2168355   -4.1838227 
  175000          350     26.11769    7.4465745   -57042.808   -57250.226    622.73714   -57872.963    194.70173    436.41806    5021.6627            0    257.52818    -9890.091   -53893.183            0    1909916.2    124.07133    124.07133    124.07133  0.050496509    11.437719    11.470485  -0.56848061 -0.072308784    -1.388301   -4.1742743 
  176000          352    26.344388   -4.3037816   -57365.637   -57245.769    628.14241   -57873.911    184.95327    435.05237    5025.4315            0    250.53896   -9875.9017   -53893.986            0    1909753.4     124.0678     124.0678     124.0678  0.050500814   0.49218912   0.53969879   -13.943233   0.34261858   -1.4902085   -4.0263176 
  177000          354    26.628554   -14.882921   -57655.771    -57241.29    634.91793   -57876.208    174.54242    433.59228    5027.8656            0    245.78292   -9863.1947   -53894.797            0    1909590.4    124.06428    124.06428    124.06428  0.050505123   -9.9157163   -9.6628367   -25.070209   0.60981762   -1.5244245   -3.7436698 
  178000          356    26.928364   -24.579511   -57921.249   -57236.783    642.06644   -57878.849    165.07819    432.13411    5028.4716            0    243.65218   -9852.6547   -53895.531            0    1909426.2    124.06072    124.06072    124.06072  0.050509467   -20.228094   -19.506239   -34.004201   0.71556484   -1.4904256   -3.3664003 
  179000          358    27.167251   -33.878867   -58175.594   -57232.251    647.76234   -57880.013    157.62116    431.86998    5027.3308            0    243.88967   -9844.6028   -53896.122            0    1909259.7    124.05711    124.05711    124.05711  0.050513872   -30.919808   -29.476107   -41.240685   0.69935281   -1.4498814   -2.9473745 
  180000          360    27.329895   -42.924318   -58422.808   -57227.704    651.64034   -57879.344    151.83997    433.70609    5025.0496            0    245.70946   -9839.1022   -53896.547            0    1909089.9    124.05344    124.05344    124.05344  0.050518364   -41.924299   -39.619926   -47.228728   0.62529866    -1.545124   -2.5341814 
  181000          362    27.476724   -51.192841   -58648.339   -57223.152    655.14126   -57878.293    147.11833    436.92842    5022.5521            0    248.05851   -9836.1106    -53896.84            0    1908915.9    124.04967    124.04967    124.04967   0.05052297   -52.324965   -49.182855   -52.070703   0.56086599   -1.9004226   -2.1716814 
  182000          364    27.673247   -57.479412   -58818.645   -57218.593    659.82706    -57878.42    144.07153    439.47219    5020.7797            0    249.95171   -9835.6144    -53897.08            0    1908736.8    124.04579    124.04579    124.04579  0.050527711   -60.424735   -56.590454   -55.423047   0.56830171    -2.494625   -1.9029152 
  183000          366    27.930882   -60.144356   -58888.079   -57214.005    665.96998   -57879.975    144.29441    439.62236    5020.3944            0    250.77556   -9837.6931   -53897.368            0    1908551.9    124.04178    124.04178    124.04178  0.050532605   -64.131377   -59.793285   -56.508406    0.6820746   -3.1491086   -1.7500897 
  184000          368    28.219421   -57.569228   -58811.607   -57209.369    672.84976   -57882.219    148.57435    437.46898    5021.5739            0    250.45836   -9842.5024   -53897.792            0    1908361.1    124.03765    124.03765    124.03765  0.050537658   -61.550756   -56.908455   -54.248472    0.8886298   -3.6503067    -1.685943 
  185000          370    28.511049   -48.755026   -58561.459   -57204.674    679.80319   -57884.477    155.94651    434.71449    5023.9596            0     249.4534   -9850.1551   -53898.396            0    1908164.6    124.03339    124.03339    124.03339  0.050542863   -51.683372    -46.94259   -47.639116    1.1241258   -3.8720497   -1.6399123 
  186000          372    28.793087   -33.889941   -58142.903   -57199.892    686.52797    -57886.42    164.85643    433.09986    5026.7728            0    248.55167   -9860.5441   -53899.157            0    1907963.3    124.02903    124.02903    124.02903  0.050548194   -35.011944      -30.359   -36.298878    1.3072494   -3.7977778   -1.5389758 
  187000          374    29.053401   -14.613213   -57601.592   -57195.012    692.73476   -57887.747    174.81475    433.01371    5029.0653            0    248.59992   -9873.2474   -53899.993            0      1907759     124.0246     124.0246     124.0246  0.050553609   -13.694938   -9.2387113   -20.905988    1.3764757    -3.457452   -1.3575578 
  188000          376    29.284025    6.2592098   -57015.893   -57190.023    698.23364   -57888.257    186.24225    433.54154    5030.0293            0    250.22219   -9887.5044   -53900.787            0    1907553.5    124.02015    124.02015    124.02015  0.050559053     8.846972    13.097923   -3.1672657     1.316349   -2.9108423   -1.1218333 
  189000          378     29.50359    25.468594   -56476.482   -57184.935    703.46883   -57888.403    198.71866     433.7489    5029.2714            0    253.62514   -9902.3373    -53901.43            0    1907349.2    124.01572    124.01572    124.01572  0.050564469    28.838548    32.912532    14.654701    1.1564428   -2.2948445  -0.88080336 
  190000          380    29.749956    40.198321   -56061.681   -57179.749    709.34306   -57889.092     210.1469    433.82838    5026.9602            0    258.52749   -9916.6897   -53901.865            0    1907148.1    124.01136    124.01136    124.01136  0.050569803    43.185808    47.051236    30.357918    0.9622902   -1.8283003  -0.67544061 
  191000          382    30.033361    48.743823   -55818.873   -57174.484    716.10044   -57890.585    218.20282    434.92148    5023.7986            0    264.21788   -9929.6142   -53902.111            0    1906951.6     124.0071     124.0071     124.0071  0.050575012    50.233046    53.762019    42.236405    0.8184411   -1.7133047   -0.5400906 
  192000          384    30.314343    50.828515    -55755.71   -57169.157    722.80002   -57891.957    222.33301    437.77125    5020.8239            0    269.71873   -9940.3443   -53902.259            0    1906760.8    124.00296    124.00296    124.00296  0.050580074    50.077237    53.091696    49.316613   0.80506307   -1.9996569  -0.50451649 
  193000          386    30.553489    47.540995   -55841.889   -57163.787    728.50211    -57892.29    223.73814    441.62156    5019.0986            0    274.01461    -9948.318   -53902.445            0    1906575.8    123.99895    123.99895    123.99895  0.050584982    44.406087    46.749631    51.467266   0.96970586   -2.5635939  -0.57636884 
  194000          388     30.77578    40.923392   -56020.607   -57158.393    733.80229   -57892.195     223.4229    444.64544    5019.3824            0    276.28923   -9953.1351     -53902.8            0    1906396.3    123.99506    123.99506    123.99506  0.050589745    35.914452    37.472767    49.382955    1.3016964   -3.2149508  -0.71292123 
  195000          390    31.052232    33.263294   -56228.244   -57152.973    740.39389   -57893.367    220.93928    445.60228    5021.8828            0    276.11007    -9954.491    -53903.41            0    1906221.5    123.99127    123.99127    123.99127  0.050594382    27.395334    28.094995    44.299554    1.7374209    -3.803681  -0.82820987 
  196000          392    31.404851    26.277962   -56417.047   -57147.517    748.80154   -57896.318    215.44082    444.98104    5026.1588            0    273.50917   -9952.1361   -53904.272            0    1906050.8    123.98757    123.98757    123.98757  0.050598914    20.762524    20.622976    37.448386    2.1951182   -4.2469777  -0.84065487 
  197000          394    31.758065    20.545118   -56570.954   -57142.013    757.22341   -57899.236    207.47736    444.29925      5031.21            0    268.93752   -9945.8737   -53905.287            0    1905883.3    123.98394    123.98394    123.98394  0.050603361    16.427554     15.65467    29.553128    2.6089489   -4.4944419  -0.72975912 
  198000          396    32.018565    15.464003   -56706.675   -57136.465    763.43463     -57899.9    198.94218    444.23442    5035.7372            0    263.11542   -9935.6405   -53906.289            0    1905718.4    123.98037    123.98037    123.98037  0.050607738    13.337628    12.362134    20.692248    2.9400173   -4.5354518  -0.54853647 
[...]
  949000         1898    290.80475    39.933876   -48532.666   -49746.546     6933.803   -56680.349    235.90541     1081.811    5154.7923            0    465.48693   -9783.7707   -53834.574            0    2084292.1    127.73783    127.73783    127.73783  0.046271873    44.814655    41.967506    33.019466     4.464655    6.6000305   -1.8626276 
  950000         1900    291.08601    39.422391   -48554.371   -49752.908    6940.5093   -56693.418    226.42315    1074.1548    5155.5912            0    458.90054   -9773.6968    -53834.79            0    2084647.8    127.74509    127.74509    127.74509  0.046263978     49.48624    35.428084     33.35285    4.6622642     2.969027   0.68794701 
  951000         1902    290.71489    39.594017   -48555.142   -49759.102    6931.6604   -56690.762    220.58706    1077.9667    5157.0282            0    452.90284   -9764.1311   -53835.116            0    2085003.5    127.75236    127.75236    127.75236  0.046256087    55.789298    29.774437    33.218315    3.5923074  -0.73077649    3.3326936 
  952000         1904    289.74538     38.22973   -48602.432   -49765.106    6908.5439    -56673.65    219.70168    1090.3639    5158.7153            0     448.1329   -9755.1739    -53835.39            0      2085359    127.75962    127.75962    127.75962  0.046248199    59.368849     23.75092    31.569421   0.39691346   -3.8762914     5.973472 
  953000         1906    288.72788    33.804946   -48742.599   -49770.878    6884.2831   -56655.161    221.10709    1100.7655    5160.2486            0    445.06745   -9746.8661   -53835.484            0    2085714.4    127.76688    127.76688    127.76688  0.046240319    57.332108    15.954891     28.12784   -4.7741628   -5.8829725    8.0508441 
  954000         1908    288.19776    26.054387    -48983.74   -49776.397    6871.6431    -56648.04    221.31447    1100.3822    5161.3335            0    443.76697   -9739.4862   -53835.351            0      2086069    127.77412    127.77412    127.77412   0.04623246    49.324772    5.8557832    22.982607   -10.769568   -6.5139123     9.001802 
  955000         1910     288.1696     16.08326   -49292.259   -49781.645    6870.9718   -56652.617    219.08354    1091.4181    5161.8568            0    443.70034   -9733.6304   -53835.045            0    2086421.8    127.78132    127.78132    127.78132  0.046224642    37.095259   -5.5153055    16.669828   -15.918566   -6.0276721    8.7068804 
  956000         1912    288.13249    6.1369703   -49599.849   -49786.618    6870.0868   -56656.705    215.32266    1086.6646    5161.8975            0    444.17722   -9730.0742   -53834.693            0    2086771.6    127.78846    127.78846    127.78846  0.046216892    23.595824   -15.652068    10.467154   -18.699854   -4.9636585    7.5130223 
  957000         1914    287.68267   -1.0268644   -49822.581   -49791.325    6859.3616   -56650.687     211.2024    1095.5028    5161.6921            0    444.77947   -9729.4175   -53834.446            0    2087117.3    127.79552    127.79552    127.79552  0.046209238    12.222255   -21.553151    6.2503024   -18.591361   -3.8455478     5.875138 
  958000         1916    287.09325   -3.1233102   -49890.853   -49795.769    6845.3077   -56641.076    207.60384    1110.5217    5161.5541            0    445.41403   -9731.7486   -53834.421            0      2087458    127.80247    127.80247    127.80247  0.046201696    6.0844555   -21.339139    5.8847531   -16.379234   -2.9709115     3.890913 
  959000         1918    286.98083   0.77712201   -49776.311   -49799.973    6842.6272     -56642.6    206.06224    1114.5946    5161.7638            0    446.23195   -9736.5974   -53834.655            0    2087793.6    127.80932    127.80932    127.80932   0.04619427    6.9783605   -15.165134     10.51814   -13.230585   -2.4070815    1.2938784 
  960000         1920    287.47965    9.9024173   -49502.414   -49803.974    6854.5209   -56658.495    208.51988    1101.4863    5162.4704            0    447.20197   -9743.0891   -53835.085            0    2088124.5    127.81607    127.81607    127.81607   0.04618695    14.355789   -4.7055014    20.056965   -9.8303259   -2.2686185    -1.955444 
  961000         1922    288.10431    22.092847   -49134.906   -49807.809    6869.4149   -56677.224    215.04055    1081.9373    5163.6425            0    447.89171   -9750.1652    -53835.57            0      2088452    127.82275    127.82275    127.82275  0.046179706    25.418697    7.9696982    32.890145   -6.5758035   -2.9436391   -5.3494814 
  962000         1924     288.3766    34.638239   -48756.308   -49811.482    6875.9075    -56687.39    222.55681    1069.4171    5165.0693            0    448.27767   -9756.7662   -53835.944            0    2088777.7     127.8294     127.8294     127.8294  0.046172506    36.602631    21.154096    46.157989    -3.972095   -4.7833531   -8.1883305 
  963000         1926    288.30158    44.999943   -48443.968   -49815.001    6874.1186   -56689.119    227.34805    1066.7531    5166.4074            0    448.46085   -9762.0209   -53836.068            0    2089103.2    127.83604    127.83604    127.83604  0.046165312    44.946021    33.277319     56.77649   -2.6271574    -7.525644   -9.8854108 
  964000         1928    288.17606    51.394821   -48252.234   -49818.347    6871.1258   -56689.472    228.97726     1067.494    5167.2669            0    448.04738   -9765.3767   -53835.881            0    2089429.7     127.8427     127.8427     127.8427  0.046158097    48.757528    42.581119    62.845815   -2.8334199   -10.228247   -10.124543 
  965000         1930    288.15201    53.408941   -48193.747   -49821.491    6870.5522   -56692.043    230.80442    1064.8304    5167.3251            0    447.19059   -9766.7688   -53835.425            0    2089758.2    127.84939    127.84939    127.84939  0.046150843    47.994869    47.812959    64.418996   -3.8721238   -11.867397   -9.2641139 
  966000         1932    288.15376    52.082118   -48236.865   -49824.421     6870.594   -56695.015    235.99911    1057.2596    5166.4467            0    446.77488   -9766.6696   -53834.826            0    2090088.7    127.85614    127.85614    127.85614  0.046143544    44.047088    49.336095    62.863172   -4.0490862   -11.932054   -8.2003853 
  967000         1934    288.02472    49.358884    -48322.34   -49827.127    6867.5174   -56694.644    243.67416     1049.528    5164.7604            0    447.49868   -9765.8508   -53834.255            0    2090421.2    127.86291    127.86291    127.86291  0.046136205    39.048324    49.170924    59.857404   -1.8631529   -10.370534   -7.4306671 
  968000         1936    287.65308    47.039616    -48395.29   -49829.599    6858.6562   -56688.255    249.89712    1049.3571    5162.6449            0    448.72392     -9765.02   -53833.858            0    2090755.3    127.86973    127.86973    127.86973  0.046128832     35.14414    49.493462    56.481246     3.014291   -7.1997135   -6.9042521 
  969000         1938    287.07895    45.930498   -48431.121   -49831.836    6844.9668   -56676.803    252.15422     1059.776    5160.6292            0    448.85047   -9764.4985   -53833.715            0    2091090.7    127.87656    127.87656    127.87656  0.046121434    33.724755    51.325474    52.741265    9.6840363    -2.439263   -6.9071477 
  970000         1940    286.50348    46.020136   -48430.153   -49833.828    6831.2456   -56665.074    251.51201    1073.4467    5159.2462            0    448.61329   -9764.0818    -53833.81            0    2091427.2    127.88342    127.88342    127.88342  0.046114012    34.939345    54.400209    48.720854    16.561643    3.5530903   -7.8354967 
  971000         1942    286.21658    46.378361   -48420.747   -49835.576    6824.4049   -56659.981    250.09315    1078.7577    5158.8831            0    449.50723   -9763.1688   -53834.053            0    2091764.9     127.8903     127.8903     127.8903  0.046106568    37.341638    57.040827    44.752617    22.180361    9.5881431   -9.5019537 
  972000         1944    286.29599    45.371024   -48452.751   -49837.075    6826.2983   -56663.373    247.65692    1073.5511    5159.6719            0    451.11681    -9761.057   -53834.313            0    2092103.7    127.89721    127.89721    127.89721  0.046099101    38.758266    56.985209    40.369597    25.648392    14.011256   -11.274252 
  973000         1946    286.44905    41.711894   -48565.425   -49838.311    6829.9479   -56668.259    241.96799    1067.5265    5161.4392            0    452.58207     -9757.31   -53834.465            0    2092443.5    127.90413    127.90413    127.90413  0.046091615    37.465002    52.834243    34.836436    26.455674    15.973933   -12.546825 
  974000         1948    286.33565    35.059171   -48769.235   -49839.279     6827.244   -56666.523    232.44494    1070.2968    5163.7248            0    453.42481   -9751.9772   -53834.437            0    2092783.8    127.91107    127.91107    127.91107   0.04608412    32.450699    44.462323    28.264491    24.636559    16.036194   -13.052587 
  975000         1950    285.91523     26.17544   -49040.923   -49839.956    6817.2196   -56657.176    222.04858     1080.945    5165.8948            0    453.76147    -9745.592   -53834.234            0    2093123.8    127.91799    127.91799    127.91799  0.046076635    23.972351    32.818266    21.735702    21.111017    15.370121   -12.920774 
  976000         1952    285.50636      16.8104   -49327.091   -49840.329    6807.4708     -56647.8    214.62533    1088.8611     5167.329            0    454.40511   -9739.0925   -53833.928            0    2093462.3    127.92489    127.92489    127.92489  0.046069184    14.118019    19.923559    16.389622    17.153589     14.64954   -12.654774 
  977000         1954    285.54808     8.949753   -49567.108   -49840.397    6808.4656   -56648.862    211.13825    1084.4605    5167.6072            0     455.1732   -9733.6087   -53833.633            0    2093798.3    127.93173    127.93173    127.93173  0.046061792    5.7854775    8.4906955    12.573086    13.618847    13.928325   -12.593487 
  978000         1956    286.08756    4.1531857   -49713.329   -49840.171    6821.3286   -56661.499    209.66642    1070.9028    5166.6264            0    454.94186   -9730.1851   -53833.452            0    2094130.6     127.9385     127.9385     127.9385  0.046054481    1.2636363   0.92025854    10.275662    11.047512    13.291024   -12.552329 
  979000         1958    286.59625    3.4174527   -49735.286   -49839.674    6833.4576   -56673.131    208.59981    1062.3513    5164.6238            0    454.21404   -9729.4864   -53833.434            0    2094458.9    127.94519    127.94519    127.94519  0.046047263    1.9893381    -1.806429    10.069449     9.672752    12.831262   -12.216841 
  980000         1960     286.6594    6.4438941   -49642.074   -49838.937    6834.9633     -56673.9    208.22598    1067.8305    5162.0968            0    453.06239   -9731.5654    -53833.55            0    2094783.1    127.95179    127.95179    127.95179  0.046040137    7.7408646  -0.56278729    12.153605    9.0219805    12.339787   -11.206731 
  981000         1962    286.43274    11.994655   -49471.484    -49837.98     6829.559   -56667.539    209.00949     1081.567    5159.6454            0    451.81267   -9735.8681   -53833.705            0    2095103.6    127.95831    127.95831    127.95831  0.046033095    16.932871    2.8667952    16.184299     8.318019     11.36942   -9.4463777 
  982000         1964    286.41909    18.407731   -49274.268     -49836.8    6829.2336   -56666.034     210.0926    1090.5504    5157.8045            0    450.80689   -9741.5064   -53833.782            0    2095421.1    127.96477    127.96477    127.96477   0.04602612    27.048172    6.6640539    21.510968    6.8927417    9.5025879   -7.0519255 
  983000         1966    286.95132    23.842137   -49106.689   -49835.404    6841.9237   -56677.328    210.82081    1087.5677    5156.9263            0    448.73551   -9747.6827   -53833.695            0    2095736.5    127.97119    127.97119    127.97119  0.046019193    35.252022    9.1668787    27.107512    4.1903068    6.6095292   -3.8831939 
  984000         1968    287.75871     27.39843   -48996.251   -49833.787    6861.1747   -56694.961    212.80667    1076.7126    5157.1262            0    445.83379   -9754.0057   -53833.435            0    2096050.5    127.97759    127.97759    127.97759  0.046012298    40.049307    9.5306996    32.615283  -0.20403179    2.9845606  -0.12045399 
  985000         1970    288.21719    29.468854    -48930.99    -49831.95    6872.1064   -56704.057     218.5146    1068.6595    5158.2643            0     444.1545   -9760.5795    -53833.07            0    2096363.6    127.98396    127.98396    127.98396  0.046005426    41.637554    8.4063533    38.362655   -6.1803868  -0.51051984    3.5992628 
  986000         1972    288.04493    31.070399   -48879.843   -49829.909    6867.9992   -56697.909    227.40616     1071.092    5159.9714            0    444.16658   -9767.8209   -53832.724            0    2096676.1    127.99032    127.99032    127.99032  0.045998568    41.200772    7.5240465     44.48638   -12.547787   -2.7420772    6.9060946 
  987000         1974    287.60956    33.455899   -48804.497   -49827.659    6857.6184   -56685.278    235.01262    1081.6275    5161.7524            0    444.99453   -9776.1399   -53832.525            0    2096988.3    127.99667    127.99667    127.99667  0.045991721    40.514605    9.0068853    50.846206   -17.342719   -2.9843313    9.3834441 
  988000         1976    287.55647    37.561765   -48676.298   -49825.199    6856.3527   -56681.552    237.15112     1090.361    5163.1458            0    446.01178    -9785.666   -53832.555            0    2097300.4    128.00302    128.00302    128.00302  0.045984877    41.125466    14.923731    56.636099   -19.179805   -1.4760631    10.358771 
  989000         1978    288.01115     43.54924   -48490.291   -49822.529    6867.1937   -56689.723    234.85876    1092.2353    5163.8649            0    448.15637   -9796.0228   -53832.815            0      2097613    128.00938    128.00938    128.00938  0.045978024    43.637053    26.057973    60.952693   -17.961316   0.63220249    9.7281202 
  990000         1980    288.37333    50.470946   -48275.456   -49819.671    6875.8295     -56695.5    234.09377    1093.6281    5163.8554            0    452.41332   -9806.2727   -53833.218            0    2097926.8    128.01576    128.01576    128.01576  0.045971146    47.456344    40.384939    63.571556   -14.495828    2.0199919    8.2567675 
  991000         1982    288.08136    56.575331   -48085.381   -49816.627    6868.8679   -56685.495    239.88506    1101.6824    5163.2734            0    458.29024   -9815.0037   -53833.622            0    2098242.8    128.02219    128.02219    128.02219  0.045964224    51.296455    53.794593    64.634945   -10.051429    1.7441597    6.8262506 
  992000         1984    287.39295    60.000847   -47977.051   -49813.399    6852.4536   -56665.852    251.01345     1111.655    5162.4173            0    463.63882   -9820.6966    -53833.88            0    2098561.6    128.02867    128.02867    128.02867  0.045957241    53.730617    62.426858    63.845067   -5.9618996  -0.64155731    5.7363757 
  993000         1986    287.08891    59.339555    -47993.57   -49809.958    6845.2044   -56655.162    260.94599    1113.1823    5161.6326            0    465.17423   -9822.2074    -53833.89            0    2098883.6    128.03522    128.03522    128.03522   0.04595019    53.426063    64.225565    60.367037   -3.1797313   -4.9213798     4.778924 
  994000         1988    287.41689    54.622643   -48134.012   -49806.274    6853.0246   -56659.299    263.86462    1105.6742    5161.2077            0    462.80476   -9819.2176   -53833.632            0    2099208.7    128.04183    128.04183    128.04183  0.045943073    49.962282    59.553776    54.351872   -2.0820831   -10.148194    3.5723662 
  995000         1990    287.94129    47.103326   -48360.046    -49802.33     6865.528   -56667.858     259.2982    1098.3609    5161.2925            0    458.67605   -9812.3062   -53833.179            0    2099536.4    128.04849    128.04849    128.04849  0.045935904    43.805557    50.854742    46.649677    -2.527213   -14.791778    2.0926888 
  996000         1992    288.22042    38.460926   -48620.274   -49798.117    6872.1836     -56670.3    251.01959    1098.4125     5161.863            0    453.76671   -9802.6906   -53832.671            0    2099865.5    128.05518    128.05518    128.05518  0.045928704    36.167874     41.05457    38.160336    -3.935247   -17.356627   0.62746036 
  997000         1994    288.20697    30.660549   -48854.538   -49793.646    6871.8627   -56665.508    242.52661    1104.5034     5162.739            0    448.86347   -9791.8741   -53832.267            0      2100195    128.06188    128.06188    128.06188  0.045921498    29.110901    32.192109    30.678637   -5.3537319   -17.106726  -0.74903831 
  998000         1996    288.22241    25.354003   -49012.238   -49788.933    6872.2309   -56661.163    234.75013    1109.1244    5163.6351            0    444.65146   -9781.2453   -53832.079            0      2100524    128.06857    128.06857    128.06857  0.045914306    24.434622    25.332301    26.295086   -5.7860778     -14.2591   -2.1459941 
  999000         1998    288.59675    23.135467   -49075.143   -49783.985    6881.1566   -56665.141    227.82021    1105.3929    5164.2318            0     441.3211   -9771.7712   -53832.136            0    2100851.6    128.07523    128.07523    128.07523  0.045907145    22.875476     20.81062    25.720306   -4.7232488   -9.9373292   -3.7349609 
 1000000         2000      289.296    23.319077   -49064.236   -49778.814    6897.8291   -56676.644    223.04546    1093.3629    5164.2714            0    438.94942   -9763.9074   -53832.365            0    2101177.8    128.08185    128.08185    128.08185  0.045900019    24.369861    18.241012    27.346357   -2.2588485   -5.6182398   -5.8246392 
Loop time of 3723.85 on 22 procs for 1000000 steps with 10000 atoms

Performance: 0.046 ns/day, 517.201 hours/ns, 268.539 timesteps/s
-0.0% CPU use with 22 MPI tasks x 1 OpenMP threads

MPI task timing breakdown:
Section |  min time  |  avg time  |  max time  |%varavg| %total
---------------------------------------------------------------
Pair    | 357.68     | 457.45     | 603.85     | 284.7 | 12.28
Bond    | 60.67      | 71.601     | 84.138     |  69.5 |  1.92
Kspace  | 1773.2     | 1932.2     | 2038.8     | 151.5 | 51.89
Neigh   | 0.18438    | 0.18565    | 0.18723    |   0.2 |  0.00
Comm    | 75.635     | 77.727     | 80.503     |  16.6 |  2.09
Output  | 5.2352     | 5.2415     | 5.3687     |   1.2 |  0.14
Modify  | 731.35     | 1028.8     | 1168       | 477.9 | 27.63
Other   |            | 150.7      |            |       |  4.05

Nlocal:        454.545 ave         562 max         359 min
Histogram: 1 1 3 2 6 3 3 2 0 1
Nghost:        3270.68 ave        3557 max        3031 min
Histogram: 3 0 4 3 5 0 1 4 0 2
Neighs:        27397.5 ave       37304 max       19237 min
Histogram: 2 1 4 1 4 4 4 1 0 1

Total # of neighbors = 602745
Ave neighs/atom = 60.274500
Ave special neighs/atom = 7.2000000
Neighbor list builds = 169
Dangerous builds = 0
unfix md2
unfix shake2

write_dump all custom radon_md_last.dump id x y z xu yu zu vx vy vz fx fy fz modify sort id
write_data npt_last.data
System init for write_data ...
PPPM initialization ...
  using 12-bit tables for long-range coulomb (src/kspace.cpp:340)
  G vector (1/distance) = 0.18671644
  grid = 64 64 64
  stencil order = 5
  estimated absolute RMS force accuracy = 0.00033651171
  estimated relative force accuracy = 1.013395e-06
  using double precision MKL FFT
  3d grid and FFT values/proc = 30636 12288
quit
