Generated by RadonPy

18 atoms
2 atom types
18 bonds
2 bond types
36 angles
3 angle types
54 dihedrals
3 dihedral types

-7.4842955195713099e+00 7.4842955195713099e+00 xlo xhi
-7.4842955195713099e+00 7.4842955195713099e+00 ylo yhi
-7.4842955195713099e+00 7.4842955195713099e+00 zlo zhi

Masses

    1	12.011000	# c3,0
    2	1.008000	# hc,0

Pair Coeffs

    1	0.107800	3.397710	# c3,0
    2	0.020800	2.600177	# hc,0

Bond Coeffs

    1	232.520000	1.538000	# c3,c3
    2	375.920000	1.097000	# c3,hc

Angle Coeffs

    1	64.888000	111.510000	# c3,c3,c3
    2	46.816000	109.800000	# c3,c3,hc
    3	38.960000	107.580000	# hc,c3,hc

Dihedral Coeffs

    1	3	0.130000	3	0.000000	0.290000	2	180.000000	0.110000	1	0.000000	# c3,c3,c3,c3
    2	2	0.080000	3	0.000000	0.080000	3	0.000000	# hc,c3,c3,c3
    3	1	0.120000	3	0.000000	# hc,c3,c3,hc

Atoms

    1	1	1	-5.3305972789115703e-02	-6.2221959335269050e-01	-1.1947350341999878e+00	 4.5858082392699917e-01
    2	1	1	-5.3305972789115703e-02	-1.4248878316076550e+00	-9.1999170450603324e-02	-2.0560238550770762e-01
    3	1	1	-5.3305972789115703e-02	-7.4268183670744004e-01	 1.2256171307902424e+00	 1.4464947959613403e-01
    4	1	1	-5.3305972789115703e-02	 6.2672116984762716e-01	 1.1722213953425884e+00	-5.4058713589480756e-01
    5	1	1	-5.3305972789115703e-02	 1.4181165096656239e+00	 1.1026539960254818e-01	 2.2326286732353570e-01
    6	1	1	-5.3305972789115703e-02	 7.7697806481747034e-01	-1.2250714445160686e+00	-1.6147694025405088e-01
    7	1	2	 2.6652986394557852e-02	-1.1294738397616420e+00	-2.1631601213369906e+00	 3.8699317512910847e-01
    8	1	2	 2.6652986394557852e-02	-4.5962444890584331e-01	-8.5780704117741147e-01	 1.5158067048093573e+00
    9	1	2	 2.6652986394557852e-02	-1.4634013872714415e+00	-2.3067996632683616e-01	-1.3098946045489257e+00
   10	1	2	 2.6652986394557852e-02	-2.4160854352383807e+00	-7.0885726207243857e-02	 2.6603030387061366e-01
   11	1	2	 2.6652986394557852e-02	-1.3259556036828297e+00	 2.0992809897222728e+00	-1.7607873429776397e-01
   12	1	2	 2.6652986394557852e-02	-5.7047249171607284e-01	 1.1996185008636151e+00	 1.2503082659571436e+00
   13	1	2	 2.6652986394557852e-02	 1.1422979524458972e+00	 2.1311638394333876e+00	-5.1936587162840930e-01
   14	1	2	 2.6652986394557852e-02	 4.8725054559981856e-01	 7.5309776738425005e-01	-1.5650039516600553e+00
   15	1	2	 2.6652986394557852e-02	 1.1788779254960706e+00	 2.9123435392520686e-01	 1.3038540934073222e+00
   16	1	2	 2.6652986394557852e-02	 2.4842955195713095e+00	 1.4012767108737861e-01	-3.2287866330865336e-04
   17	1	2	 2.6652986394557852e-02	 1.3483719010255721e+00	-2.0826123130596019e+00	 2.0412391561584109e-01
   18	1	2	 2.6652986394557852e-02	 6.9189287977460645e-01	-1.2056762308767455e+00	-1.2752771271810268e+00

Bonds

    1	1	1	2
    2	1	2	3
    3	1	3	4
    4	1	4	5
    5	1	5	6
    6	1	6	1
    7	2	1	7
    8	2	1	8
    9	2	2	9
   10	2	2	10
   11	2	3	11
   12	2	3	12
   13	2	4	13
   14	2	4	14
   15	2	5	15
   16	2	5	16
   17	2	6	17
   18	2	6	18

Angles

    1	1	2	1	6
    2	2	2	1	7
    3	2	2	1	8
    4	2	6	1	7
    5	2	6	1	8
    6	3	7	1	8
    7	1	1	2	3
    8	2	1	2	9
    9	2	1	2	10
   10	2	3	2	9
   11	2	3	2	10
   12	3	9	2	10
   13	1	2	3	4
   14	2	2	3	11
   15	2	2	3	12
   16	2	4	3	11
   17	2	4	3	12
   18	3	11	3	12
   19	1	3	4	5
   20	2	3	4	13
   21	2	3	4	14
   22	2	5	4	13
   23	2	5	4	14
   24	3	13	4	14
   25	1	4	5	6
   26	2	4	5	15
   27	2	4	5	16
   28	2	6	5	15
   29	2	6	5	16
   30	3	15	5	16
   31	1	5	6	1
   32	2	5	6	17
   33	2	5	6	18
   34	2	1	6	17
   35	2	1	6	18
   36	3	17	6	18

Dihedrals

    1	1	6	1	2	3
    2	2	6	1	2	9
    3	2	6	1	2	10
    4	2	7	1	2	3
    5	3	7	1	2	9
    6	3	7	1	2	10
    7	2	8	1	2	3
    8	3	8	1	2	9
    9	3	8	1	2	10
   10	1	1	2	3	4
   11	2	1	2	3	11
   12	2	1	2	3	12
   13	2	9	2	3	4
   14	3	9	2	3	11
   15	3	9	2	3	12
   16	2	10	2	3	4
   17	3	10	2	3	11
   18	3	10	2	3	12
   19	1	2	3	4	5
   20	2	2	3	4	13
   21	2	2	3	4	14
   22	2	11	3	4	5
   23	3	11	3	4	13
   24	3	11	3	4	14
   25	2	12	3	4	5
   26	3	12	3	4	13
   27	3	12	3	4	14
   28	1	3	4	5	6
   29	2	3	4	5	15
   30	2	3	4	5	16
   31	2	13	4	5	6
   32	3	13	4	5	15
   33	3	13	4	5	16
   34	2	14	4	5	6
   35	3	14	4	5	15
   36	3	14	4	5	16
   37	1	4	5	6	1
   38	2	4	5	6	17
   39	2	4	5	6	18
   40	2	15	5	6	1
   41	3	15	5	6	17
   42	3	15	5	6	18
   43	2	16	5	6	1
   44	3	16	5	6	17
   45	3	16	5	6	18
   46	1	5	6	1	2
   47	2	5	6	1	7
   48	2	5	6	1	8
   49	2	17	6	1	2
   50	3	17	6	1	7
   51	3	17	6	1	8
   52	2	18	6	1	2
   53	3	18	6	1	7
   54	3	18	6	1	8
